ITEM: TIMESTEP
0
ITEM: NUMBER OF ATOMS
5
ITEM: BOX BOUNDS pp pp pp
-1.5625000000000000e+03 1.5625000000000000e+03
-1.5625000000000000e+03 1.5625000000000000e+03
-5.0000000000000003e-02 5.0000000000000003e-02
ITEM: ATOMS id type mol x y z
5 2 1 150 406.607 0
2 2 1 144.107 412.5 0
1 1 1 150 412.5 0
4 2 1 155.893 412.5 0
3 2 1 150 418.393 0
ITEM: TIMESTEP
1000
ITEM: NUMBER OF ATOMS
5
ITEM: BOX BOUNDS pp pp pp
-1.5625000000000000e+03 1.5625000000000000e+03
-1.5625000000000000e+03 1.5625000000000000e+03
-5.0000000000000003e-02 5.0000000000000003e-02
ITEM: ATOMS id type mol x y z
5 2 1 148.307 405.163 -8.17808e-17
2 2 1 141.585 410.089 5.6991e-16
1 1 1 147.409 410.987 0
4 2 1 153.233 411.885 -5.6991e-16
3 2 1 146.511 416.811 8.17808e-17
ITEM: TIMESTEP
2000
ITEM: NUMBER OF ATOMS
5
ITEM: BOX BOUNDS pp pp pp
-1.5625000000000000e+03 1.5625000000000000e+03
-1.5625000000000000e+03 1.5625000000000000e+03
-5.0000000000000003e-02 5.0000000000000003e-02
ITEM: ATOMS id type mol x y z
5 2 1 153.837 404.518 -9.81369e-16
2 2 1 145.781 406.649 3.68013e-16
1 1 1 150.875 409.612 0
4 2 1 155.969 412.574 -3.68013e-16
3 2 1 147.913 414.706 9.81369e-16
ITEM: TIMESTEP
3000
ITEM: NUMBER OF ATOMS
5
ITEM: BOX BOUNDS pp pp pp
-1.5625000000000000e+03 1.5625000000000000e+03
-1.5625000000000000e+03 1.5625000000000000e+03
-5.0000000000000003e-02 5.0000000000000003e-02
ITEM: ATOMS id type mol x y z
2 2 1 149.796 406.554 2.1263e-15
5 2 1 158.118 406.127 -1.63562e-15
3 2 1 150.223 414.877 1.63562e-15
1 1 1 154.17 410.502 0
4 2 1 158.545 414.45 -2.1263e-15
ITEM: TIMESTEP
4000
ITEM: NUMBER OF ATOMS
5
ITEM: BOX BOUNDS pp pp pp
-1.5625000000000000e+03 1.5625000000000000e+03
-1.5625000000000000e+03 1.5625000000000000e+03
-5.0000000000000003e-02 5.0000000000000003e-02
ITEM: ATOMS id type mol x y z
2 2 1 152.561 410.878 2.5352e-15
5 2 1 160.277 407.729 -1.14493e-15
3 2 1 155.71 418.594 1.14493e-15
1 1 1 157.994 413.161 0
4 2 1 163.426 415.445 -2.5352e-15
ITEM: TIMESTEP
5000
ITEM: NUMBER OF ATOMS
5
ITEM: BOX BOUNDS pp pp pp
-1.5625000000000000e+03 1.5625000000000000e+03
-1.5625000000000000e+03 1.5625000000000000e+03
-5.0000000000000003e-02 5.0000000000000003e-02
ITEM: ATOMS id type mol x y z
5 2 1 162.434 408.235 -2.61698e-15
2 2 1 154.101 408.347 1.96274e-15
1 1 1 158.323 412.457 0
3 2 1 154.212 416.68 2.61698e-15
4 2 1 162.545 416.568 -1.96274e-15
ITEM: TIMESTEP
6000
ITEM: NUMBER OF ATOMS
5
ITEM: BOX BOUNDS pp pp pp
-1.5625000000000000e+03 1.5625000000000000e+03
-1.5625000000000000e+03 1.5625000000000000e+03
-5.0000000000000003e-02 5.0000000000000003e-02
ITEM: ATOMS id type mol x y z
2 2 1 153.831 410.845 -1.63562e-16
5 2 1 162.003 412.481 -2.28986e-15
3 2 1 152.195 419.016 2.28986e-15
1 1 1 157.099 415.749 0
4 2 1 160.367 420.652 1.63562e-16
ITEM: TIMESTEP
7000
ITEM: NUMBER OF ATOMS
5
ITEM: BOX BOUNDS pp pp pp
-1.5625000000000000e+03 1.5625000000000000e+03
-1.5625000000000000e+03 1.5625000000000000e+03
-5.0000000000000003e-02 5.0000000000000003e-02
ITEM: ATOMS id type mol x y z
2 2 1 156.026 410.141 -4.90685e-16
5 2 1 164.32 410.954 -1.30849e-15
3 2 1 155.213 418.435 1.30849e-15
1 1 1 159.767 414.695 0
4 2 1 163.507 419.248 4.90685e-16
ITEM: TIMESTEP
8000
ITEM: NUMBER OF ATOMS
5
ITEM: BOX BOUNDS pp pp pp
-1.5625000000000000e+03 1.5625000000000000e+03
-1.5625000000000000e+03 1.5625000000000000e+03
-5.0000000000000003e-02 5.0000000000000003e-02
ITEM: ATOMS id type mol x y z
2 2 1 155.465 410.414 -8.17808e-16
1 1 1 158.336 415.56 0
5 2 1 163.482 412.689 -1.30849e-15
3 2 1 153.189 418.431 1.30849e-15
4 2 1 161.207 420.706 8.17808e-16
ITEM: TIMESTEP
9000
ITEM: NUMBER OF ATOMS
5
ITEM: BOX BOUNDS pp pp pp
-1.5625000000000000e+03 1.5625000000000000e+03
-1.5625000000000000e+03 1.5625000000000000e+03
-5.0000000000000003e-02 5.0000000000000003e-02
ITEM: ATOMS id type mol x y z
2 2 1 156.461 410.114 -1.63562e-16
5 2 1 163.965 413.74 -1.63562e-15
3 2 1 152.835 417.618 1.63562e-15
1 1 1 158.4 415.679 0
4 2 1 160.339 421.244 1.63562e-16
ITEM: TIMESTEP
10000
ITEM: NUMBER OF ATOMS
5
ITEM: BOX BOUNDS pp pp pp
-1.5625000000000000e+03 1.5625000000000000e+03
-1.5625000000000000e+03 1.5625000000000000e+03
-5.0000000000000003e-02 5.0000000000000003e-02
ITEM: ATOMS id type mol x y z
2 2 1 158.621 411.219 0
5 2 1 165.158 416.388 -1.30849e-15
3 2 1 153.452 417.756 1.30849e-15
1 1 1 159.305 417.072 0
4 2 1 159.989 422.925 0
ITEM: TIMESTEP
11000
ITEM: NUMBER OF ATOMS
5
ITEM: BOX BOUNDS pp pp pp
-1.5625000000000000e+03 1.5625000000000000e+03
-1.5625000000000000e+03 1.5625000000000000e+03
-5.0000000000000003e-02 5.0000000000000003e-02
ITEM: ATOMS id type mol x y z
2 2 1 157.794 410.048 -3.27123e-16
3 2 1 151.669 415.7 2.28986e-15
1 1 1 157.557 415.936 0
5 2 1 163.445 416.173 -2.28986e-15
4 2 1 157.32 421.825 3.27123e-16
ITEM: TIMESTEP
12000
ITEM: NUMBER OF ATOMS
5
ITEM: BOX BOUNDS pp pp pp
-1.5625000000000000e+03 1.5625000000000000e+03
-1.5625000000000000e+03 1.5625000000000000e+03
-5.0000000000000003e-02 5.0000000000000003e-02
ITEM: ATOMS id type mol x y z
2 2 1 161.911 410.113 -1.96274e-15
3 2 1 154.054 412.892 2.28986e-15
1 1 1 159.372 415.431 0
5 2 1 164.69 417.97 -2.28986e-15
4 2 1 156.833 420.749 1.96274e-15
ITEM: TIMESTEP
13000
ITEM: NUMBER OF ATOMS
5
ITEM: BOX BOUNDS pp pp pp
-1.5625000000000000e+03 1.5625000000000000e+03
-1.5625000000000000e+03 1.5625000000000000e+03
-5.0000000000000003e-02 5.0000000000000003e-02
ITEM: ATOMS id type mol x y z
3 2 1 154.499 412.593 2.28986e-15
2 2 1 161.046 407.437 -1.30849e-15
1 1 1 160.35 413.289 0
4 2 1 159.654 419.141 1.30849e-15
5 2 1 166.202 413.985 -2.28986e-15
ITEM: TIMESTEP
14000
ITEM: NUMBER OF ATOMS
5
ITEM: BOX BOUNDS pp pp pp
-1.5625000000000000e+03 1.5625000000000000e+03
-1.5625000000000000e+03 1.5625000000000000e+03
-5.0000000000000003e-02 5.0000000000000003e-02
ITEM: ATOMS id type mol x y z
2 2 1 156.434 409.368 3.27123e-16
3 2 1 152.835 416.885 2.94411e-15
1 1 1 158.393 414.926 0
5 2 1 163.951 412.967 -2.94411e-15
4 2 1 160.352 420.484 -3.27123e-16
ITEM: TIMESTEP
15000
ITEM: NUMBER OF ATOMS
5
ITEM: BOX BOUNDS pp pp pp
-1.5625000000000000e+03 1.5625000000000000e+03
-1.5625000000000000e+03 1.5625000000000000e+03
-5.0000000000000003e-02 5.0000000000000003e-02
ITEM: ATOMS id type mol x y z
2 2 1 159.019 410.774 2.1263e-15
1 1 1 160.916 416.353 0
5 2 1 166.495 414.456 -3.27123e-15
3 2 1 155.336 418.25 3.27123e-15
4 2 1 162.813 421.932 -2.1263e-15
ITEM: TIMESTEP
16000
ITEM: NUMBER OF ATOMS
5
ITEM: BOX BOUNDS pp pp pp
-1.5625000000000000e+03 1.5625000000000000e+03
-1.5625000000000000e+03 1.5625000000000000e+03
-5.0000000000000003e-02 5.0000000000000003e-02
ITEM: ATOMS id type mol x y z
2 2 1 158.507 411.805 2.78055e-15
5 2 1 166.332 414.672 -2.94411e-15
3 2 1 155.64 419.63 2.94411e-15
1 1 1 160.986 417.151 0
4 2 1 163.465 422.497 -2.78055e-15
ITEM: TIMESTEP
17000
ITEM: NUMBER OF ATOMS
5
ITEM: BOX BOUNDS pp pp pp
-1.5625000000000000e+03 1.5625000000000000e+03
-1.5625000000000000e+03 1.5625000000000000e+03
-5.0000000000000003e-02 5.0000000000000003e-02
ITEM: ATOMS id type mol x y z
2 2 1 158.054 410.768 2.94411e-15
5 2 1 166.016 413.232 -3.92548e-15
3 2 1 155.591 418.73 3.92548e-15
1 1 1 160.803 415.981 0
4 2 1 163.552 421.193 -2.94411e-15
ITEM: TIMESTEP
18000
ITEM: NUMBER OF ATOMS
5
ITEM: BOX BOUNDS pp pp pp
-1.5625000000000000e+03 1.5625000000000000e+03
-1.5625000000000000e+03 1.5625000000000000e+03
-5.0000000000000003e-02 5.0000000000000003e-02
ITEM: ATOMS id type mol x y z
2 2 1 157.745 413.605 2.96455e-15
5 2 1 165.724 411.199 -2.94411e-15
3 2 1 160.151 421.584 2.94411e-15
1 1 1 162.938 416.391 0
4 2 1 168.13 419.178 -2.96455e-15
ITEM: TIMESTEP
19000
ITEM: NUMBER OF ATOMS
5
ITEM: BOX BOUNDS pp pp pp
-1.5625000000000000e+03 1.5625000000000000e+03
-1.5625000000000000e+03 1.5625000000000000e+03
-5.0000000000000003e-02 5.0000000000000003e-02
ITEM: ATOMS id type mol x y z
2 2 1 153.711 412.784 2.49431e-15
5 2 1 162.018 412.107 -3.92548e-15
1 1 1 158.203 416.598 0
4 2 1 162.694 420.413 -2.49431e-15
3 2 1 154.388 421.09 3.92548e-15
ITEM: TIMESTEP
20000
ITEM: NUMBER OF ATOMS
5
ITEM: BOX BOUNDS pp pp pp
-1.5625000000000000e+03 1.5625000000000000e+03
-1.5625000000000000e+03 1.5625000000000000e+03
-5.0000000000000003e-02 5.0000000000000003e-02
ITEM: ATOMS id type mol x y z
2 2 1 153.582 413.529 3.60858e-15
5 2 1 160.845 409.442 -1.63562e-15
1 1 1 159.257 415.117 0
4 2 1 164.932 416.705 -3.60858e-15
3 2 1 157.669 420.792 1.63562e-15
ITEM: TIMESTEP
21000
ITEM: NUMBER OF ATOMS
5
ITEM: BOX BOUNDS pp pp pp
-1.5625000000000000e+03 1.5625000000000000e+03
-1.5625000000000000e+03 1.5625000000000000e+03
-5.0000000000000003e-02 5.0000000000000003e-02
ITEM: ATOMS id type mol x y z
2 2 1 152.926 413.728 2.11608e-15
5 2 1 160.025 409.362 -5.47931e-15
1 1 1 158.658 415.094 0
3 2 1 157.291 420.827 5.47931e-15
4 2 1 164.39 416.461 -2.11608e-15
ITEM: TIMESTEP
22000
ITEM: NUMBER OF ATOMS
5
ITEM: BOX BOUNDS pp pp pp
-1.5625000000000000e+03 1.5625000000000000e+03
-1.5625000000000000e+03 1.5625000000000000e+03
-5.0000000000000003e-02 5.0000000000000003e-02
ITEM: ATOMS id type mol x y z
5 2 1 154.559 408.336 -5.31575e-15
2 2 1 148.043 413.532 2.76777e-15
1 1 1 153.899 414.192 0
4 2 1 159.754 414.852 -2.76777e-15
3 2 1 153.238 420.048 5.31575e-15
ITEM: TIMESTEP
23000
ITEM: NUMBER OF ATOMS
5
ITEM: BOX BOUNDS pp pp pp
-1.5625000000000000e+03 1.5625000000000000e+03
-1.5625000000000000e+03 1.5625000000000000e+03
-5.0000000000000003e-02 5.0000000000000003e-02
ITEM: ATOMS id type mol x y z
5 2 1 156.29 408.089 -6.21534e-15
2 2 1 148.204 410.103 9.81369e-16
1 1 1 153.254 413.14 0
4 2 1 158.304 416.176 -9.81369e-16
3 2 1 150.218 418.19 6.21534e-15
ITEM: TIMESTEP
24000
ITEM: NUMBER OF ATOMS
5
ITEM: BOX BOUNDS pp pp pp
-1.5625000000000000e+03 1.5625000000000000e+03
-1.5625000000000000e+03 1.5625000000000000e+03
-5.0000000000000003e-02 5.0000000000000003e-02
ITEM: ATOMS id type mol x y z
5 2 1 158.497 411.588 -7.19671e-15
2 2 1 150.265 412.884 1.79918e-15
1 1 1 155.029 416.353 0
3 2 1 151.561 421.117 7.19671e-15
4 2 1 159.793 419.821 -1.79918e-15
ITEM: TIMESTEP
25000
ITEM: NUMBER OF ATOMS
5
ITEM: BOX BOUNDS pp pp pp
-1.5625000000000000e+03 1.5625000000000000e+03
-1.5625000000000000e+03 1.5625000000000000e+03
-5.0000000000000003e-02 5.0000000000000003e-02
ITEM: ATOMS id type mol x y z
2 2 1 149.047 416.231 4.17849e-15
5 2 1 155.751 411.28 -5.31575e-15
1 1 1 154.874 417.108 0
4 2 1 160.702 417.984 -4.17849e-15
3 2 1 153.998 422.935 5.31575e-15
ITEM: TIMESTEP
26000
ITEM: NUMBER OF ATOMS
5
ITEM: BOX BOUNDS pp pp pp
-1.5625000000000000e+03 1.5625000000000000e+03
-1.5625000000000000e+03 1.5625000000000000e+03
-5.0000000000000003e-02 5.0000000000000003e-02
ITEM: ATOMS id type mol x y z
5 2 1 156.176 411.347 -6.13356e-15
2 2 1 149.262 415.999 2.90322e-15
1 1 1 155.045 417.13 0
4 2 1 160.829 418.261 -2.90322e-15
3 2 1 153.915 422.914 6.13356e-15
ITEM: TIMESTEP
27000
ITEM: NUMBER OF ATOMS
5
ITEM: BOX BOUNDS pp pp pp
-1.5625000000000000e+03 1.5625000000000000e+03
-1.5625000000000000e+03 1.5625000000000000e+03
-5.0000000000000003e-02 5.0000000000000003e-02
ITEM: ATOMS id type mol x y z
5 2 1 159.075 412.967 -6.54246e-15
2 2 1 150.782 413.787 -3.27123e-16
1 1 1 155.338 417.524 0
4 2 1 159.895 421.261 3.27123e-16
3 2 1 151.601 422.08 6.54246e-15
ITEM: TIMESTEP
28000
ITEM: NUMBER OF ATOMS
5
ITEM: BOX BOUNDS pp pp pp
-1.5625000000000000e+03 1.5625000000000000e+03
-1.5625000000000000e+03 1.5625000000000000e+03
-5.0000000000000003e-02 5.0000000000000003e-02
ITEM: ATOMS id type mol x y z
5 2 1 155.266 409.237 -4.78418e-15
1 1 1 155.404 415.128 0
4 2 1 161.296 414.99 -3.89465e-15
2 2 1 149.513 415.266 3.89465e-15
3 2 1 155.542 421.019 4.78418e-15
ITEM: TIMESTEP
29000
ITEM: NUMBER OF ATOMS
5
ITEM: BOX BOUNDS pp pp pp
-1.5625000000000000e+03 1.5625000000000000e+03
-1.5625000000000000e+03 1.5625000000000000e+03
-5.0000000000000003e-02 5.0000000000000003e-02
ITEM: ATOMS id type mol x y z
5 2 1 153.274 406.609 -4.00726e-15
1 1 1 154.689 412.33 0
4 2 1 160.409 410.916 -5.17263e-15
2 2 1 148.968 413.745 5.17263e-15
3 2 1 156.103 418.051 4.00726e-15
ITEM: TIMESTEP
30000
ITEM: NUMBER OF ATOMS
5
ITEM: BOX BOUNDS pp pp pp
-1.5625000000000000e+03 1.5625000000000000e+03
-1.5625000000000000e+03 1.5625000000000000e+03
-5.0000000000000003e-02 5.0000000000000003e-02
ITEM: ATOMS id type mol x y z
5 2 1 156.976 410.301 -5.02952e-15
2 2 1 151.374 416.471 3.60155e-15
1 1 1 157.26 416.187 0
4 2 1 163.146 415.903 -3.60155e-15
3 2 1 157.544 422.073 5.02952e-15
ITEM: TIMESTEP
31000
ITEM: NUMBER OF ATOMS
5
ITEM: BOX BOUNDS pp pp pp
-1.5625000000000000e+03 1.5625000000000000e+03
-1.5625000000000000e+03 1.5625000000000000e+03
-5.0000000000000003e-02 5.0000000000000003e-02
ITEM: ATOMS id type mol x y z
5 2 1 158.475 411.405 -1.63562e-16
2 2 1 152.001 416.654 3.82836e-15
1 1 1 157.862 417.266 0
4 2 1 163.723 417.878 -3.82836e-15
3 2 1 157.25 423.127 1.63562e-16
ITEM: TIMESTEP
32000
ITEM: NUMBER OF ATOMS
5
ITEM: BOX BOUNDS pp pp pp
-1.5625000000000000e+03 1.5625000000000000e+03
-1.5625000000000000e+03 1.5625000000000000e+03
-5.0000000000000003e-02 5.0000000000000003e-02
ITEM: ATOMS id type mol x y z
5 2 1 151.669 413.424 3.27123e-15
2 2 1 152.465 421.719 2.86233e-15
1 1 1 156.215 417.173 0
4 2 1 159.964 412.627 -2.86233e-15
3 2 1 160.761 420.923 -3.27123e-15
ITEM: TIMESTEP
33000
ITEM: NUMBER OF ATOMS
5
ITEM: BOX BOUNDS pp pp pp
-1.5625000000000000e+03 1.5625000000000000e+03
-1.5625000000000000e+03 1.5625000000000000e+03
-5.0000000000000003e-02 5.0000000000000003e-02
ITEM: ATOMS id type mol x y z
5 2 1 151.066 408.697 2.45342e-15
4 2 1 158.933 411.447 -3.3939e-15
1 1 1 153.625 414.005 0
2 2 1 148.317 416.564 3.3939e-15
3 2 1 156.184 419.314 -2.45342e-15
ITEM: TIMESTEP
34000
ITEM: NUMBER OF ATOMS
5
ITEM: BOX BOUNDS pp pp pp
-1.5625000000000000e+03 1.5625000000000000e+03
-1.5625000000000000e+03 1.5625000000000000e+03
-5.0000000000000003e-02 5.0000000000000003e-02
ITEM: ATOMS id type mol x y z
5 2 1 150.106 411.312 2.94411e-15
1 1 1 154.637 415.079 0
4 2 1 158.404 410.547 -2.69877e-15
2 2 1 150.871 419.611 2.69877e-15
3 2 1 159.169 418.846 -2.94411e-15
ITEM: TIMESTEP
35000
ITEM: NUMBER OF ATOMS
5
ITEM: BOX BOUNDS pp pp pp
-1.5625000000000000e+03 1.5625000000000000e+03
-1.5625000000000000e+03 1.5625000000000000e+03
-5.0000000000000003e-02 5.0000000000000003e-02
ITEM: ATOMS id type mol x y z
5 2 1 153.929 410.249 1.96274e-15
1 1 1 158.099 414.412 0
4 2 1 162.263 410.242 -3.27123e-15
2 2 1 153.936 418.582 3.27123e-15
3 2 1 162.27 418.576 -1.96274e-15
ITEM: TIMESTEP
36000
ITEM: NUMBER OF ATOMS
5
ITEM: BOX BOUNDS pp pp pp
-1.5625000000000000e+03 1.5625000000000000e+03
-1.5625000000000000e+03 1.5625000000000000e+03
-5.0000000000000003e-02 5.0000000000000003e-02
ITEM: ATOMS id type mol x y z
5 2 1 153.403 411.057 1.47205e-15
1 1 1 156.253 416.215 0
4 2 1 161.411 413.364 -3.33257e-15
2 2 1 151.095 419.065 3.33257e-15
3 2 1 159.103 421.373 -1.47205e-15
ITEM: TIMESTEP
37000
ITEM: NUMBER OF ATOMS
5
ITEM: BOX BOUNDS pp pp pp
-1.5625000000000000e+03 1.5625000000000000e+03
-1.5625000000000000e+03 1.5625000000000000e+03
-5.0000000000000003e-02 5.0000000000000003e-02
ITEM: ATOMS id type mol x y z
5 2 1 152.062 413.07 1.63562e-15
4 2 1 160.392 413.328 -3.27123e-15
2 2 1 151.804 421.4 3.27123e-15
1 1 1 156.098 417.364 0
3 2 1 160.134 421.658 -1.63562e-15
ITEM: TIMESTEP
38000
ITEM: NUMBER OF ATOMS
5
ITEM: BOX BOUNDS pp pp pp
-1.5625000000000000e+03 1.5625000000000000e+03
-1.5625000000000000e+03 1.5625000000000000e+03
-5.0000000000000003e-02 5.0000000000000003e-02
ITEM: ATOMS id type mol x y z
5 2 1 147.007 412.079 3.59835e-15
4 2 1 154.815 409.168 -2.1263e-15
1 1 1 152.366 414.528 0
2 2 1 149.917 419.888 2.1263e-15
3 2 1 157.726 416.977 -3.59835e-15
ITEM: TIMESTEP
39000
ITEM: NUMBER OF ATOMS
5
ITEM: BOX BOUNDS pp pp pp
-1.5625000000000000e+03 1.5625000000000000e+03
-1.5625000000000000e+03 1.5625000000000000e+03
-5.0000000000000003e-02 5.0000000000000003e-02
ITEM: ATOMS id type mol x y z
5 2 1 148.224 414.628 2.94411e-15
4 2 1 156.362 412.831 -1.79918e-15
1 1 1 153.192 417.798 0
2 2 1 150.022 422.766 1.79918e-15
3 2 1 158.159 420.968 -2.94411e-15
ITEM: TIMESTEP
40000
ITEM: NUMBER OF ATOMS
5
ITEM: BOX BOUNDS pp pp pp
-1.5625000000000000e+03 1.5625000000000000e+03
-1.5625000000000000e+03 1.5625000000000000e+03
-5.0000000000000003e-02 5.0000000000000003e-02
ITEM: ATOMS id type mol x y z
5 2 1 148.482 413.167 2.61698e-15
4 2 1 156.537 411.027 -6.54246e-16
1 1 1 153.58 416.124 0
3 2 1 158.677 419.081 -2.61698e-15
2 2 1 150.623 421.222 6.54246e-16
ITEM: TIMESTEP
41000
ITEM: NUMBER OF ATOMS
5
ITEM: BOX BOUNDS pp pp pp
-1.5625000000000000e+03 1.5625000000000000e+03
-1.5625000000000000e+03 1.5625000000000000e+03
-5.0000000000000003e-02 5.0000000000000003e-02
ITEM: ATOMS id type mol x y z
5 2 1 148.218 415.472 2.28986e-15
4 2 1 156.552 415.415 -9.81369e-16
1 1 1 152.414 419.61 0
3 2 1 156.61 423.748 -2.28986e-15
2 2 1 148.276 423.806 9.81369e-16
ITEM: TIMESTEP
42000
ITEM: NUMBER OF ATOMS
5
ITEM: BOX BOUNDS pp pp pp
-1.5625000000000000e+03 1.5625000000000000e+03
-1.5625000000000000e+03 1.5625000000000000e+03
-5.0000000000000003e-02 5.0000000000000003e-02
ITEM: ATOMS id type mol x y z
5 2 1 151.111 415.279 1.96274e-15
1 1 1 153.224 420.78 0
4 2 1 158.725 418.668 -3.3939e-15
2 2 1 147.722 422.892 3.3939e-15
3 2 1 155.336 426.282 -1.96274e-15
ITEM: TIMESTEP
43000
ITEM: NUMBER OF ATOMS
5
ITEM: BOX BOUNDS pp pp pp
-1.5625000000000000e+03 1.5625000000000000e+03
-1.5625000000000000e+03 1.5625000000000000e+03
-5.0000000000000003e-02 5.0000000000000003e-02
ITEM: ATOMS id type mol x y z
5 2 1 150.082 413.787 3.27123e-15
1 1 1 153.173 418.804 0
4 2 1 158.19 415.713 -2.82144e-15
2 2 1 148.156 421.895 2.82144e-15
3 2 1 156.264 423.821 -3.27123e-15
ITEM: TIMESTEP
44000
ITEM: NUMBER OF ATOMS
5
ITEM: BOX BOUNDS pp pp pp
-1.5625000000000000e+03 1.5625000000000000e+03
-1.5625000000000000e+03 1.5625000000000000e+03
-5.0000000000000003e-02 5.0000000000000003e-02
ITEM: ATOMS id type mol x y z
5 2 1 149.835 420.444 4.90685e-15
1 1 1 155.31 422.622 0
4 2 1 157.488 417.146 -1.14493e-15
2 2 1 153.133 428.098 1.14493e-15
3 2 1 160.786 424.8 -4.90685e-15
ITEM: TIMESTEP
45000
ITEM: NUMBER OF ATOMS
5
ITEM: BOX BOUNDS pp pp pp
-1.5625000000000000e+03 1.5625000000000000e+03
-1.5625000000000000e+03 1.5625000000000000e+03
-5.0000000000000003e-02 5.0000000000000003e-02
ITEM: ATOMS id type mol x y z
5 2 1 150 418.433 4.2526e-15
4 2 1 158.321 417.978 -8.17808e-16
1 1 1 154.388 422.366 0
3 2 1 158.777 426.299 -4.2526e-15
2 2 1 150.455 426.755 8.17808e-16
ITEM: TIMESTEP
46000
ITEM: NUMBER OF ATOMS
5
ITEM: BOX BOUNDS pp pp pp
-1.5625000000000000e+03 1.5625000000000000e+03
-1.5625000000000000e+03 1.5625000000000000e+03
-5.0000000000000003e-02 5.0000000000000003e-02
ITEM: ATOMS id type mol x y z
5 2 1 151.922 415.104 3.59835e-15
4 2 1 160.251 414.832 -1.63562e-15
1 1 1 156.223 419.132 0
3 2 1 160.523 423.161 -3.59835e-15
2 2 1 152.194 423.433 1.63562e-15
ITEM: TIMESTEP
47000
ITEM: NUMBER OF ATOMS
5
ITEM: BOX BOUNDS pp pp pp
-1.5625000000000000e+03 1.5625000000000000e+03
-1.5625000000000000e+03 1.5625000000000000e+03
-5.0000000000000003e-02 5.0000000000000003e-02
ITEM: ATOMS id type mol x y z
5 2 1 151.254 415.063 2.94411e-15
4 2 1 159.046 412.106 -1.30849e-15
1 1 1 156.629 417.481 0
2 2 1 154.211 422.855 1.30849e-15
3 2 1 162.003 419.898 -2.94411e-15
ITEM: TIMESTEP
48000
ITEM: NUMBER OF ATOMS
5
ITEM: BOX BOUNDS pp pp pp
-1.5625000000000000e+03 1.5625000000000000e+03
-1.5625000000000000e+03 1.5625000000000000e+03
-5.0000000000000003e-02 5.0000000000000003e-02
ITEM: ATOMS id type mol x y z
5 2 1 154.135 417.594 2.28986e-15
4 2 1 161.968 414.748 -6.54246e-16
1 1 1 159.474 420.087 0
3 2 1 164.814 422.581 -2.28986e-15
2 2 1 156.981 425.427 6.54246e-16
ITEM: TIMESTEP
49000
ITEM: NUMBER OF ATOMS
5
ITEM: BOX BOUNDS pp pp pp
-1.5625000000000000e+03 1.5625000000000000e+03
-1.5625000000000000e+03 1.5625000000000000e+03
-5.0000000000000003e-02 5.0000000000000003e-02
ITEM: ATOMS id type mol x y z
4 2 1 162.231 411.869 1.30849e-15
5 2 1 155.541 416.838 1.30849e-15
1 1 1 161.371 417.698 0
2 2 1 160.51 423.528 -1.30849e-15
3 2 1 167.2 418.559 -1.30849e-15
ITEM: TIMESTEP
50000
ITEM: NUMBER OF ATOMS
5
ITEM: BOX BOUNDS pp pp pp
-1.5625000000000000e+03 1.5625000000000000e+03
-1.5625000000000000e+03 1.5625000000000000e+03
-5.0000000000000003e-02 5.0000000000000003e-02
ITEM: ATOMS id type mol x y z
4 2 1 165.715 416.611 7.36027e-16
5 2 1 157.453 417.704 1.63562e-15
1 1 1 162.131 421.288 0
3 2 1 166.808 424.873 -1.63562e-15
2 2 1 158.546 425.966 -7.36027e-16
ITEM: TIMESTEP
51000
ITEM: NUMBER OF ATOMS
5
ITEM: BOX BOUNDS pp pp pp
-1.5625000000000000e+03 1.5625000000000000e+03
-1.5625000000000000e+03 1.5625000000000000e+03
-5.0000000000000003e-02 5.0000000000000003e-02
ITEM: ATOMS id type mol x y z
5 2 1 158.067 417.363 2.94411e-15
4 2 1 165.812 414.284 -1.30849e-15
2 2 1 161.146 425.107 1.30849e-15
1 1 1 163.479 419.695 0
3 2 1 168.89 422.028 -2.94411e-15
ITEM: TIMESTEP
52000
ITEM: NUMBER OF ATOMS
5
ITEM: BOX BOUNDS pp pp pp
-1.5625000000000000e+03 1.5625000000000000e+03
-1.5625000000000000e+03 1.5625000000000000e+03
-5.0000000000000003e-02 5.0000000000000003e-02
ITEM: ATOMS id type mol x y z
4 2 1 167.753 414.705 -1.30849e-15
5 2 1 160.194 418.215 2.94411e-15
1 1 1 165.728 420.24 0
2 2 1 163.704 425.774 1.30849e-15
3 2 1 171.262 422.264 -2.94411e-15
ITEM: TIMESTEP
53000
ITEM: NUMBER OF ATOMS
5
ITEM: BOX BOUNDS pp pp pp
-1.5625000000000000e+03 1.5625000000000000e+03
-1.5625000000000000e+03 1.5625000000000000e+03
-5.0000000000000003e-02 5.0000000000000003e-02
ITEM: ATOMS id type mol x y z
4 2 1 163.605 415.447 3.27123e-16
5 2 1 159.5 422.7 4.2526e-15
1 1 1 165.179 421.126 0
2 2 1 166.753 426.805 -3.27123e-16
3 2 1 170.858 419.552 -4.2526e-15
ITEM: TIMESTEP
54000
ITEM: NUMBER OF ATOMS
5
ITEM: BOX BOUNDS pp pp pp
-1.5625000000000000e+03 1.5625000000000000e+03
-1.5625000000000000e+03 1.5625000000000000e+03
-5.0000000000000003e-02 5.0000000000000003e-02
ITEM: ATOMS id type mol x y z
4 2 1 161.016 418.384 9.81369e-16
3 2 1 168.852 421.222 -5.23397e-15
5 2 1 158.178 426.22 5.23397e-15
1 1 1 163.515 423.721 0
2 2 1 166.014 429.058 -9.81369e-16
ITEM: TIMESTEP
55000
ITEM: NUMBER OF ATOMS
5
ITEM: BOX BOUNDS pp pp pp
-1.5625000000000000e+03 1.5625000000000000e+03
-1.5625000000000000e+03 1.5625000000000000e+03
-5.0000000000000003e-02 5.0000000000000003e-02
ITEM: ATOMS id type mol x y z
4 2 1 164.605 417.216 1.30849e-15
3 2 1 172.876 418.243 -5.56109e-15
5 2 1 163.578 425.486 5.56109e-15
1 1 1 168.227 421.865 0
2 2 1 171.848 426.514 -1.30849e-15
ITEM: TIMESTEP
56000
ITEM: NUMBER OF ATOMS
5
ITEM: BOX BOUNDS pp pp pp
-1.5625000000000000e+03 1.5625000000000000e+03
-1.5625000000000000e+03 1.5625000000000000e+03
-5.0000000000000003e-02 5.0000000000000003e-02
ITEM: ATOMS id type mol x y z
4 2 1 160.64 418.761 4.57972e-15
3 2 1 166.55 412.885 -2.00618e-15
5 2 1 166.516 424.671 2.00618e-15
1 1 1 166.533 418.778 0
2 2 1 172.426 418.795 -4.57972e-15
ITEM: TIMESTEP
57000
ITEM: NUMBER OF ATOMS
5
ITEM: BOX BOUNDS pp pp pp
-1.5625000000000000e+03 1.5625000000000000e+03
-1.5625000000000000e+03 1.5625000000000000e+03
-5.0000000000000003e-02 5.0000000000000003e-02
ITEM: ATOMS id type mol x y z
3 2 1 161.099 414.11 9.81369e-16
4 2 1 159.752 422.335 5.56109e-15
1 1 1 164.538 418.896 0
2 2 1 169.323 415.457 -5.56109e-15
5 2 1 167.977 423.681 -9.81369e-16
ITEM: TIMESTEP
58000
ITEM: NUMBER OF ATOMS
5
ITEM: BOX BOUNDS pp pp pp
-1.5625000000000000e+03 1.5625000000000000e+03
-1.5625000000000000e+03 1.5625000000000000e+03
-5.0000000000000003e-02 5.0000000000000003e-02
ITEM: ATOMS id type mol x y z
3 2 1 161.817 410.926 -1.14493e-15
1 1 1 163.055 416.688 0
2 2 1 168.817 415.449 -5.56109e-15
4 2 1 157.294 417.926 5.56109e-15
5 2 1 164.294 422.449 1.14493e-15
ITEM: TIMESTEP
59000
ITEM: NUMBER OF ATOMS
5
ITEM: BOX BOUNDS pp pp pp
-1.5625000000000000e+03 1.5625000000000000e+03
-1.5625000000000000e+03 1.5625000000000000e+03
-5.0000000000000003e-02 5.0000000000000003e-02
ITEM: ATOMS id type mol x y z
3 2 1 165.444 412.103 -1.96274e-15
4 2 1 157.891 415.623 5.23397e-15
1 1 1 163.428 417.64 0
2 2 1 168.965 419.657 -5.23397e-15
5 2 1 161.411 423.177 1.96274e-15
ITEM: TIMESTEP
60000
ITEM: NUMBER OF ATOMS
5
ITEM: BOX BOUNDS pp pp pp
-1.5625000000000000e+03 1.5625000000000000e+03
-1.5625000000000000e+03 1.5625000000000000e+03
-5.0000000000000003e-02 5.0000000000000003e-02
ITEM: ATOMS id type mol x y z
3 2 1 163.135 409.322 1.39027e-15
4 2 1 158.696 416.375 5.23397e-15
1 1 1 164.442 415.068 0
2 2 1 170.188 413.761 -5.23397e-15
5 2 1 165.749 420.814 -1.39027e-15
ITEM: TIMESTEP
61000
ITEM: NUMBER OF ATOMS
5
ITEM: BOX BOUNDS pp pp pp
-1.5625000000000000e+03 1.5625000000000000e+03
-1.5625000000000000e+03 1.5625000000000000e+03
-5.0000000000000003e-02 5.0000000000000003e-02
ITEM: ATOMS id type mol x y z
3 2 1 158.262 412.518 5.88822e-15
1 1 1 163.997 413.872 0
2 2 1 165.351 408.137 -1.30849e-15
4 2 1 162.643 419.607 1.30849e-15
5 2 1 169.732 415.226 -5.88822e-15
ITEM: TIMESTEP
62000
ITEM: NUMBER OF ATOMS
5
ITEM: BOX BOUNDS pp pp pp
-1.5625000000000000e+03 1.5625000000000000e+03
-1.5625000000000000e+03 1.5625000000000000e+03
-5.0000000000000003e-02 5.0000000000000003e-02
ITEM: ATOMS id type mol x y z
2 2 1 165.812 407.996 -1.63562e-15
3 2 1 158.681 412.309 5.56109e-15
1 1 1 164.403 413.718 0
4 2 1 162.994 419.44 1.63562e-15
5 2 1 170.125 415.127 -5.56109e-15
ITEM: TIMESTEP
63000
ITEM: NUMBER OF ATOMS
5
ITEM: BOX BOUNDS pp pp pp
-1.5625000000000000e+03 1.5625000000000000e+03
-1.5625000000000000e+03 1.5625000000000000e+03
-5.0000000000000003e-02 5.0000000000000003e-02
ITEM: ATOMS id type mol x y z
2 2 1 163.049 408.095 0
3 2 1 158.619 415.154 4.57972e-15
1 1 1 164.363 413.84 0
5 2 1 170.108 412.526 -4.57972e-15
4 2 1 165.677 419.584 0
ITEM: TIMESTEP
64000
ITEM: NUMBER OF ATOMS
5
ITEM: BOX BOUNDS pp pp pp
-1.5625000000000000e+03 1.5625000000000000e+03
-1.5625000000000000e+03 1.5625000000000000e+03
-5.0000000000000003e-02 5.0000000000000003e-02
ITEM: ATOMS id type mol x y z
2 2 1 163.729 408.036 6.54246e-16
1 1 1 165.82 413.546 0
5 2 1 171.329 411.454 -3.92548e-15
3 2 1 160.31 415.637 3.92548e-15
4 2 1 167.911 419.055 -6.54246e-16
ITEM: TIMESTEP
65000
ITEM: NUMBER OF ATOMS
5
ITEM: BOX BOUNDS pp pp pp
-1.5625000000000000e+03 1.5625000000000000e+03
-1.5625000000000000e+03 1.5625000000000000e+03
-5.0000000000000003e-02 5.0000000000000003e-02
ITEM: ATOMS id type mol x y z
2 2 1 168.471 409.35 -9.81369e-16
1 1 1 167.765 415.2 0
5 2 1 173.615 415.906 -4.57972e-15
3 2 1 161.914 414.494 4.57972e-15
4 2 1 167.059 421.051 9.81369e-16
ITEM: TIMESTEP
66000
ITEM: NUMBER OF ATOMS
5
ITEM: BOX BOUNDS pp pp pp
-1.5625000000000000e+03 1.5625000000000000e+03
-1.5625000000000000e+03 1.5625000000000000e+03
-5.0000000000000003e-02 5.0000000000000003e-02
ITEM: ATOMS id type mol x y z
3 2 1 163.718 413.364 4.2526e-15
2 2 1 171.8 411.332 -2.94411e-15
1 1 1 168.775 416.389 0
5 2 1 173.832 419.414 -4.2526e-15
4 2 1 165.75 421.446 2.94411e-15
ITEM: TIMESTEP
67000
ITEM: NUMBER OF ATOMS
5
ITEM: BOX BOUNDS pp pp pp
-1.5625000000000000e+03 1.5625000000000000e+03
-1.5625000000000000e+03 1.5625000000000000e+03
-5.0000000000000003e-02 5.0000000000000003e-02
ITEM: ATOMS id type mol x y z
3 2 1 166.393 411.982 3.92548e-15
2 2 1 174.726 412.128 -3.27123e-15
1 1 1 170.487 416.221 0
5 2 1 174.58 420.46 -3.92548e-15
4 2 1 166.248 420.315 3.27123e-15
ITEM: TIMESTEP
68000
ITEM: NUMBER OF ATOMS
5
ITEM: BOX BOUNDS pp pp pp
-1.5625000000000000e+03 1.5625000000000000e+03
-1.5625000000000000e+03 1.5625000000000000e+03
-5.0000000000000003e-02 5.0000000000000003e-02
ITEM: ATOMS id type mol x y z
3 2 1 166.118 410.412 3.27123e-15
2 2 1 174.391 411.415 -4.57972e-15
4 2 1 165.115 418.685 4.57972e-15
1 1 1 169.753 415.05 0
5 2 1 173.388 419.688 -3.27123e-15
ITEM: TIMESTEP
69000
ITEM: NUMBER OF ATOMS
5
ITEM: BOX BOUNDS pp pp pp
-1.5625000000000000e+03 1.5625000000000000e+03
-1.5625000000000000e+03 1.5625000000000000e+03
-5.0000000000000003e-02 5.0000000000000003e-02
ITEM: ATOMS id type mol x y z
3 2 1 170.579 408.253 -1.45365e-14
1 1 1 170.371 414.142 0
2 2 1 176.26 414.35 -4.57972e-15
4 2 1 164.482 413.934 4.57972e-15
5 2 1 170.163 420.031 1.45365e-14
ITEM: TIMESTEP
70000
ITEM: NUMBER OF ATOMS
5
ITEM: BOX BOUNDS pp pp pp
-1.5625000000000000e+03 1.5625000000000000e+03
-1.5625000000000000e+03 1.5625000000000000e+03
-5.0000000000000003e-02 5.0000000000000003e-02
ITEM: ATOMS id type mol x y z
3 2 1 165.659 409.257 -2.78055e-14
4 2 1 163.937 417.411 2.97682e-14
1 1 1 168.875 414.195 0
2 2 1 173.813 410.979 -2.97682e-14
5 2 1 172.091 419.133 2.78055e-14
ITEM: TIMESTEP
71000
ITEM: NUMBER OF ATOMS
5
ITEM: BOX BOUNDS pp pp pp
-1.5625000000000000e+03 1.5625000000000000e+03
-1.5625000000000000e+03 1.5625000000000000e+03
-5.0000000000000003e-02 5.0000000000000003e-02
ITEM: ATOMS id type mol x y z
3 2 1 167.819 406.645 -6.91865e-14
1 1 1 166.449 412.376 0
2 2 1 172.181 413.746 2.28986e-15
4 2 1 160.718 411.007 -2.28986e-15
5 2 1 165.08 418.108 6.91865e-14
ITEM: TIMESTEP
72000
ITEM: NUMBER OF ATOMS
5
ITEM: BOX BOUNDS pp pp pp
-1.5625000000000000e+03 1.5625000000000000e+03
-1.5625000000000000e+03 1.5625000000000000e+03
-5.0000000000000003e-02 5.0000000000000003e-02
ITEM: ATOMS id type mol x y z
3 2 1 165.879 407.297 -6.54246e-14
4 2 1 157.782 409.267 -2.22444e-14
1 1 1 162.816 412.331 0
2 2 1 167.85 415.394 2.22444e-14
5 2 1 159.753 417.365 6.54246e-14
ITEM: TIMESTEP
73000
ITEM: NUMBER OF ATOMS
5
ITEM: BOX BOUNDS pp pp pp
-1.5625000000000000e+03 1.5625000000000000e+03
-1.5625000000000000e+03 1.5625000000000000e+03
-5.0000000000000003e-02 5.0000000000000003e-02
ITEM: ATOMS id type mol x y z
4 2 1 155.594 412.739 1.11222e-14
3 2 1 161.95 407.349 -1.37065e-13
1 1 1 161.467 413.222 0
5 2 1 160.984 419.095 1.37065e-13
2 2 1 167.34 413.705 -1.11222e-14
ITEM: TIMESTEP
74000
ITEM: NUMBER OF ATOMS
5
ITEM: BOX BOUNDS pp pp pp
-1.5625000000000000e+03 1.5625000000000000e+03
-1.5625000000000000e+03 1.5625000000000000e+03
-5.0000000000000003e-02 5.0000000000000003e-02
ITEM: ATOMS id type mol x y z
3 2 1 165.064 407.188 -2.46651e-13
4 2 1 157.866 411.388 -4.31802e-14