fix fLANG all langevin 1.0 1.0 1.0 100
neigh_modify exclude molecule/intra all
fix rigidNVE linked_vesicle rigid/nve molecule
  1 rigid bodies with 5 atoms
fix NVE synapsin nve 1.0 1.0 1.0

    ##======================================##
    ## Output
    ##======================================##

thermo 1000
thermo_style custom step temp press etotal epair
thermo_modify flush yes
timestep 0.01

    ##======================================##
    ## Equilibration before output
    ##======================================##


    ##======================================##
    ## Run with output
    ##======================================##

fix enforce_2d all enforce2d
dump 2 all custom 1000 Results_eps_attr1_eps_rep1_eps_rep_weak1e-06_range2_attr_with_repFalse_n_synapsin600_n_vesicles1/Movie_2d_eps_attr1_eps_rep1_eps_rep_weak1e-06_range2_attr_with_repFalse_n_synapsin600_n_vesicles1.xyz id type mol x y z
run 1000000
Generated 0 of 3 mixed pair_coeff terms from geometric mixing rule
Neighbor list info ...
  update every 1 steps, delay 1 steps, check yes
  max neighbors/atom: 2000, page size: 100000
  master list distance cutoff = 11.52462
  ghost atom cutoff = 11.52462
  binsize = 5.7623102, bins = 55 55 1
  1 neighbor lists, perpetual/occasional/extra = 1 0 0
  (1) pair cosine/squared, perpetual
      attributes: half, newton on
      pair build: half/bin/newton
      stencil: half/bin/2d
      bin: standard
Per MPI rank memory allocation (min/avg/max) = 8.538 | 8.538 | 8.538 Mbytes
   Step          Temp          Press          TotEng         E_pair    
         0   0.99605013    -0.012465183    0.98864149     0            
      1000   0.97933204     0.0066724612   0.97040397    -0.0016437821 
      2000   1.0323336      0.0063199035   1.02526        0.00060486335
      3000   1.0687323      0.006013174    1.0607424     -4.0645499e-05
      4000   0.97256654     0.0054675684   0.96523226    -0.00010030809
      5000   0.99463106     0.0064193932   0.98559417    -0.001638802  
      6000   1.0174286      0.0060904249   1.0098986      3.7699892e-05
      7000   0.9495118      0.0062410288   0.94244931     0            
      8000   1.0038096      0.006425759    0.99741748     0.001074262  
      9000   0.96075097     0.0060951062   0.95195433    -0.0016505572 
     10000   0.95777826     0.0048448722   0.9490014     -0.0016528911 
     11000   1.0240167      0.0057604778   1.0154998     -0.0009002841 
     12000   0.99795876     0.0072200524   0.99053593     0            
     13000   1.0032913      0.0057290841   0.99582884     0            
     14000   0.96449324     0.0067616859   0.95715011    -0.00016921594
     15000   0.99825539     0.0063018914   0.98952762    -0.0013027299 
     16000   0.94606101     0.00561141     0.93743369    -0.0015904995 
     17000   1.0626933      0.0067517208   1.0523491     -0.0024398973 
     18000   0.90745684     0.0053740466   0.89832649    -0.0023806739 
     19000   0.93823422     0.0059670588   0.92879422    -0.0024613912 
     20000   1.0469813      0.0065245598   1.0376011     -0.0015927914 
     21000   0.92503831     0.0060869939   0.91752879    -0.00062906778
     22000   0.95178752     0.0059392089   0.94470811     0            
     23000   0.98077942     0.0058006619   0.98160072     0.0081163506 
     24000   0.93591942     0.0046708192   0.92914783     0.00018978931
     25000   1.0408521      0.0052472416   1.0331102      0            
     26000   0.94586462     0.0060229549   0.93882926     0            
     27000   1.0362032      0.006591977    1.0284959      0            
     28000   1.0119972      0.0058771565   1.0045694      9.9443585e-05
     29000   1.0225369      0.0061881523   1.0149283     -2.9478624e-06
     30000   1.0203091      0.0061146333   1.0127201      0            
     31000   1.0147858      0.0059892193   1.0087361      0.0014982805 
     32000   1.066525       0.0067200932   1.0585922      0            
     33000   0.97784372     0.0061780748   0.9705705      0            
     34000   0.98731611     0.0057346146   0.98025164     0.00027920547
     35000   1.0585703      0.0067091959   1.0507267      3.0074027e-05
     36000   0.93965094     0.0065355674   0.93307911     0.00041731153
     37000   0.99858306     0.0062523792   0.99271968     0.0015640959 
     38000   1.0026452      0.0056585795   0.99518755     0            
     39000   1.0087579      0.0073674273   0.99960184    -0.0016528907 
     40000   1.0335         0.0061813988   1.0258128      0            
     41000   1.050555       0.007094004    1.0427409      0            
     42000   0.90410181     0.0053917384   0.89737709     0            
     43000   0.9643935      0.0054884651   0.95722032     0            
     44000   1.0469274      0.0067605306   1.0391404      0            
     45000   1.0690983      0.0070077568   1.0611463      0            
     46000   0.94552245     0.0057885475   0.93805151    -0.00043812036
     47000   0.9759368      0.005294897    0.96717982    -0.0014979395 
     48000   0.97434894     0.0055747108   0.96616939    -0.00093233432
     49000   1.0275963      0.0058020102   1.0209224      0.00096934824
     50000   0.93841354     0.0054271828   0.93142204    -1.1567637e-05
     51000   1.0250855      0.0061130172   1.0174671      6.1713859e-06
     52000   0.93929327     0.0048302156   0.93230679     0            
     53000   1.0188923      0.0068035303   1.0110118     -0.00030188745
     54000   1.0165744      0.0067406684   1.0082687     -0.00074442789
     55000   1.0044271      0.0067385012   0.99507275    -0.0018834262 
     56000   0.93647515     0.006289413    0.92805313    -0.0014564952 
     57000   1.0123766      0.0056895799   1.0022287     -0.0026177591 
     58000   0.93440419     0.0069452756   0.92758235     0.00012827575
     59000   1.0172738      0.0060655415   1.0108185      0.0011112555 
     60000   0.96443794     0.0063757977   0.95726444     0            
     61000   0.9829438      0.006463776    0.97563265     0            
     62000   0.98264928     0.005997774    0.97532788    -1.2436741e-05
     63000   0.94859001     0.0049333312   0.94153439     0            
     64000   1.0346548      0.0064797087   1.026352      -0.00060702725
     65000   1.020703       0.0064511743   1.0117622     -0.0013488013 
     66000   0.9610291      0.0057930394   0.95381815    -6.2799025e-05
     67000   1.0565203      0.0068041403   1.0486619      0            
     68000   0.95129277     0.0059260071   0.94421704     0            
     69000   0.97032065     0.0059938319   0.96310339     0            
     70000   0.9978629      0.005896879    0.99044077     0            
     71000   0.98155894     0.0064133417   0.97308729    -0.001170798  
     72000   1.0357511      0.0054085157   1.0280471      0            
     73000   1.0487523      0.0075912982   1.0401037     -0.00084797258
     74000   0.99721309     0.0063389606   0.9884425     -0.001353309  
     75000   0.93986462     0.0050305583   0.93287389     0            
     76000   1.028095       0.0063809519   1.0204481      0            
     77000   0.94658049     0.0064708696   0.93959251     5.2695365e-05
     78000   1.0014933      0.0059133857   0.99455896     0.00051476268
     79000   0.97978033     0.0055016021   0.97085896    -0.0016337495 
     80000   1.028553       0.0073813579   1.0201731     -0.00072956453
     81000   0.95564202     0.0055678004   0.9485362      2.2632417e-06
     82000   0.97261117     0.0059521609   0.96401643    -0.0013604473 
     83000   0.9639167      0.0066399903   0.95522523    -0.0015218446 
     84000   1.039412       0.0060342113   1.0315608     -0.0001199583 
     85000   0.95485525     0.0066691134   0.94700841    -0.00074460974
     86000   0.91956678     0.0057792968   0.91107414    -0.001652887  
     87000   0.95133936     0.0051848215   0.94426328     0            
     88000   1.0045998      0.0065236151   0.99712753     0            
     89000   1.0148699      0.0075040708   1.0060333     -0.0012879332 
     90000   0.97930044     0.0058670673   0.9673535     -0.0046628861 
     91000   1.0409117      0.0059117095   1.0296995     -0.0034698931 
     92000   1.0322063      0.0060473203   1.0224114     -0.0021172912 
     93000   0.97990004     0.0062002801   0.96799202    -0.0046195064 
     94000   1.0089191      0.0058792008   0.99939204    -0.0020226639 
     95000   1.022944       0.0059764705   1.0136512     -0.0016840757 
     96000   0.98366135     0.0055818361   0.9728207     -0.0035241597 
     97000   1.0172862      0.0061114954   1.0097196      9.0039059e-09
     98000   1.0161088      0.0074093455   1.0080402     -0.00051082343
     99000   1.0114457      0.0051952509   1.0013006     -0.002621903  
    100000   1.0200022      0.0069643894   1.008477      -0.0039384111 
    101000   1.025538       0.0059810288   1.0167865     -0.0011235886 
    102000   1.0612762      0.005854513    1.052827      -0.00055535474
    103000   0.97264798     0.0054536768   0.96541341     0            
    104000   0.96808331     0.0061250011   0.96098489     0.00010220806
    105000   1.0234474      0.0068248644   1.0152622     -0.00057278552
    106000   1.0276687      0.0060475134   1.0183713     -0.0016536759 
    107000   0.91806563     0.0057053042   0.90986702    -0.0013700155 
    108000   0.95094857     0.0060671677   0.94295988    -0.00091551891
    109000   0.98009978     0.0058192253   0.97139157    -0.001418218  
    110000   1.0185238      0.0060339163   1.0110952      0.00014717721
    111000   1.0036925      0.0067133472   0.99622703     0            
    112000   0.96600927     0.0054408543   0.95871594    -0.0001081424 
    113000   1.0123284      0.0059232548   1.0047987      0            
    114000   0.99119753     0.0051542187   0.98490301     0.0010780287 
    115000   1.0369225      0.0057707762   1.0288622     -0.00034764905
    116000   1.0191376      0.007063329    1.0100111     -0.0015461202 
    117000   1.0146571      0.0073762454   1.006969      -0.0001410527 
    118000   0.98397216     0.0062756216   0.97665336     0            
    119000   0.99219669     0.0054573944   0.98356589    -0.0012508315 
    120000   1.0188825      0.0062893222   1.0114853      0.00018124642
    121000   1.0131526      0.0053577663   1.0056167      0            
    122000   1.072509       0.00586885     1.0633757     -0.0011559838 
    123000   1.0369959      0.0062406786   1.0298422      0.00055950225
    124000   0.97524984     0.0062272478   0.9668552     -0.0011407142 
    125000   0.96471208     0.0062910373   0.9579269      0.00039037265
    126000   1.0376243      0.0068873699   1.0299064      0            
    127000   0.99785298     0.0064649798   0.99371252     0.0032815928 
    128000   0.98748482     0.0056755493   0.9795165     -0.00062338868
    129000   0.97176498     0.0056871776   0.96453697     0            
    130000   1.0095732      0.0071632063   1.0020382     -2.5780579e-05
    131000   1.0864308      0.0070916792   1.076697      -0.001652887  
    132000   0.98129991     0.0058979562   0.97227381    -0.0017271735 
    133000   0.99930335     0.0067698195   0.99231926     0.0004487444 
    134000   1.0155119      0.0054998024   1.0079596      1.0958685e-06
    135000   1.106304       0.0069090111   1.0980753      0            
    136000   0.98216874     0.0060557628   0.97486336     0            
    137000   1.035166       0.0068302594   1.0274664      0            
    138000   0.98434069     0.0060164516   0.97533403    -0.0016851182 
    139000   0.99237185     0.0053921329   0.98409031    -0.00090026052
    140000   1.0281183      0.0059385729   1.0193327     -0.0011384426 
    141000   0.98415372     0.0063412264   0.9748704     -0.0019631665 
    142000   1.0128847      0.0069898195   1.0031219     -0.0022289634 
    143000   1.0531713      0.0065546456   1.0453378      0            
    144000   1.008766       0.0062054244   0.99878581    -0.0024769778 
    145000   0.9897037      0.0064905446   0.98176376    -0.00057849835
    146000   0.93279612     0.0060687929   0.92254052    -0.003317445  
    147000   0.96682885     0.0064541981   0.95790569    -0.0017318733 
    148000   0.95115624     0.0062375837   0.94201892    -0.0020626028 
    149000   1.0001087      0.0056347483   0.98913562    -0.0035342302 
    150000   0.93874813     0.0053619489   0.93043685    -0.0013288566 
    151000   1.0245615      0.0058026081   1.0152505     -0.0016903249 
    152000   1.0710864      0.0058222822   1.0609862     -0.0021333931 
    153000   0.9650557      0.0053627813   0.95477603    -0.0031015697 
    154000   1.0108643      0.0049922012   1.0025827     -0.00076270592
    155000   0.93586352     0.0063647837   0.92779227    -0.0011102869 
    156000   1.0274097      0.0071785497   1.0197678      0            
    157000   1.0330122      0.0065313774   1.0243901     -0.00093852596
    158000   1.045258       0.006184384    1.0375632      7.9840394e-05
    159000   0.92576706     0.0048877441   0.91741773    -0.0014634557 
    160000   1.0230892      0.0055956813   1.0149049     -0.00057455206
    161000   1.0059682      0.0062684312   0.99887831     0.00039250481
    162000   0.97276017     0.0063469014   0.96531261    -0.00021215076
    163000   0.94561398     0.0050588843   0.93752369    -0.0010567975 
    164000   1.0166354      0.0066757874   1.0085827     -0.00049094874
    165000   0.96616344     0.0073730634   0.9589771      0            
    166000   0.98120871     0.006705375    0.97245244    -0.0014580312 
    167000   0.98093835     0.0068441069   0.97233109    -0.0013110183 
    168000   1.081832       0.0062441518   1.0725633     -0.001222041  
    169000   0.95566115     0.005895941    0.94958518     0.0010322453 
    170000   0.97647945     0.0061807026   0.96929307     7.6687663e-05
    171000   0.98596614     0.0060665798   0.9787555      0.00012299243
    172000   1.0462919      0.0059627614   1.038263      -0.00024653703
    173000   1.0087417      0.006876602    0.99959082    -0.001647814  
    174000   1.0178177      0.0060273662   1.0096887     -0.00055845766
    175000   0.92628891     0.0059416571   0.91939916     0            
    176000   0.99846006     0.0065067318   0.99116318     0.00012968475
    177000   1.0355538      0.0067758172   1.0278514      0            
    178000   0.97077316     0.0054987796   0.96355254     0            
    179000   1.0261398      0.0059214246   1.020739       0.002231625  
    180000   0.99214117     0.0055191529   0.9847616      0            
    181000   1.0388224      0.0072436262   1.0309065     -0.00018915033
    182000   1.0879924      0.0074295533   1.0789825     -0.00091747242
    183000   1.0151762      0.0064626966   1.0053754     -0.002249921  
    184000   1.0170884      0.006566697    1.0108623      0.0013390199 
    185000   1.0481922      0.0058342649   1.0394104     -0.00098533163
    186000   0.97430427     0.0065388008   0.96552036    -0.0015370202 
    187000   1.0182737      0.0064873267   1.00884       -0.0018597854 
    188000   1.0452641      0.0074533506   1.0374894      0            
    189000   1.0159465      0.0074202507   1.009026       0.00063616824
    190000   1.0009822      0.0072127858   0.9935781      4.1194888e-05
    191000   1.0050501      0.0069958999   1.0010978      0.0035233017 
    192000   1.049025       0.0064889821   1.0403284     -0.00089389615
    193000   1.013539       0.0062954245   1.0078488      0.001848569  
    194000   0.98852912     0.0056403328   0.98008339    -0.0010930371 
    195000   0.99941844     0.0053947872   0.99035079    -0.0016339674 
    196000   1.0215253      0.0067757957   1.0130129     -0.00091424776
    197000   1.0510971      0.0067074993   1.043279       0            
    198000   1.0761817      0.0070518583   1.068177       0            
    199000   1.0339524      0.0059656173   1.0261583     -0.0001035351 
    200000   0.94109621     0.0061143605   0.93290836    -0.0011879533 
    201000   1.0053489      0.0060270001   0.99730817    -0.00056295667
    202000   1.0009817      0.0057712738   0.99316293    -0.00037341405
    203000   1.0006851      0.005775472    0.99274102    -0.00050098406
    204000   1.0220344      0.0063798365   1.0113004     -0.0031321087 
    205000   1.0413388      0.0068433829   1.0315459     -0.0020474256 
    206000   0.91196447     0.005555011    0.9051781     -3.1593821e-06
    207000   1.0019409      0.0059920022   0.99448847     0            
    208000   1.0134353      0.0057100141   1.004544      -0.0013533661 
    209000   1.0520427      0.0062547811   1.0425634     -0.0016541787 
    210000   1.0009143      0.0058516168   0.99270213    -0.00076735175
    211000   0.99122883     0.0072082921   0.98385569    -3.6878584e-07
    212000   1.0063111      0.0071535953   0.99834106    -0.00048505699
    213000   1.0054164      0.0057723043   0.99400184    -0.0039362436 
    214000   1.0154904      0.0059981481   1.0068396     -0.0010975838 
    215000   1.0204216      0.0058927263   1.0128024     -2.9298159e-05
    216000   1.0272438      0.0068659974   1.0195638     -3.9368172e-05
    217000   0.98093529     0.0061597112   0.97435771     0.00071862928
    218000   1.0365217      0.0069136227   1.0287168     -9.5316538e-05
    219000   1.081104       0.0065152216   1.0730627      0            
    220000   0.90933889     0.0053432597   0.90426876     0.0016935425 
    221000   1.0151377      0.0058111334   1.0059353     -0.0016517752 
    222000   1.0006839      0.0055962555   0.99158795    -0.001652882  
    223000   0.97901099     0.0061861679   0.97127773    -0.00045135988
    224000   0.98788748     0.005288885    0.97861273    -0.0019268255 
    225000   1.0213458      0.0071900987   1.0126531     -0.0010958709 
    226000   1.0303354      0.007339134    1.0203244     -0.0023473444 
    227000   0.93943291     0.0067032037   0.93244539    -3.0471631e-09
    228000   1.026351       0.006195057    1.018722       5.0644446e-06
    229000   0.97052972     0.0059112327   0.96163921    -0.0016716904 
    230000   1.0363811      0.0059030721   1.0306369      0.0019644317 
    231000   0.99498671     0.0068435777   0.98647396    -0.0011120255 
    232000   1.0020941      0.0055073184   0.9916892     -0.0029513567 
    233000   1.0465868      0.0067439338   1.036982      -0.0018203057 
    234000   1.0264244      0.0063729621   1.0181771     -0.00061279158
    235000   1.0444063      0.0051364786   1.0343983     -0.002239738  
    236000   1.0526615      0.0066847284   1.0468528      0.0020209499 
    237000   0.97931599     0.0056968963   0.97203213     3.0756854e-07
    238000   0.98430658     0.006219456    0.97794991     0.00096462505
    239000   0.99919207     0.0059771057   0.99198855     0.00022848755
    240000   0.97416283     0.0056265668   0.96454399    -0.0023730026 
    241000   0.98297366     0.0054230008   0.97553007    -0.00013221401
    242000   0.94548134     0.0048450355   0.93833423    -0.00011460393
    243000   1.0234794      0.0061888533   1.0148184     -0.0010483661 
    244000   0.98323616     0.0054599543   0.97433441    -0.0015884265 
    245000   0.95050461     0.0060687335   0.94227418    -0.0011605622 
    246000   1.0295311      0.0066293086   1.0218734      0            
    247000   0.9835664      0.0059967893   0.97483653    -0.0014140859 
    248000   0.9661399      0.0068562279   0.95826534    -0.00068839576
    249000   0.94974272     0.0052090967   0.93800538    -0.0046731397 
    250000   1.0545332      0.0059543414   1.0439494     -0.0027401568 
    251000   0.99103115     0.0060265342   0.98406589     0.00040604554
    252000   0.94654477     0.0053408031   0.93779362    -0.001710731  
    253000   1.0187397      0.0061958159   1.0111623      0            
    254000   0.99536737     0.0064009479   0.98796381     0            
    255000   1.0596001      0.0071252147   1.0530828      0.0013640241 
    256000   0.99672647     0.00630089     0.9895711      0.0002583017 
    257000   0.97182828     0.0061091007   0.96396726    -0.00063254264
    258000   1.0331069      0.0058889342   1.0254226      0            
    259000   1.0333997      0.0054012084   1.0257133      0            
    260000   0.93411442     0.0061179552   0.92716646     0            
    261000   1.0266437      0.0070000168   1.0198962      0.00088868954
    262000   0.95784897     0.0065161855   0.94866377    -0.0020607016 
    263000   1.0280043      0.0057693762   1.0208761      0.00051816734
    264000   0.92842774     0.0058921866   0.92092874    -0.00059334191
    265000   0.99636536     0.0058237537   0.98732319    -0.0016311873 
    266000   0.99192869     0.005388765    0.98295856    -0.0015921422 
    267000   0.98913618     0.006244227    0.98179256     1.3589957e-05
    268000   1.0269007      0.0062410728   1.0192626      0            
    269000   1.0318823      0.0070663368   1.0267695      0.0025624154 
    270000   1.0505099      0.0058335187   1.0405435     -0.0021527134 
    271000   1.0355803      0.0059716453   1.0278751     -2.5190747e-06
    272000   0.99971793     0.0063636288   0.99054184    -0.0017401678 
    273000   1.0216496      0.0067234791   1.0126623     -0.0013881694 
    274000   1.0165682      0.0062345494   1.0062231     -0.0027838288 
    275000   0.94380153     0.0047963604   0.93548966    -0.0012918539 
    276000   1.0167747      0.0059006435   1.0081825     -0.0010294812 
    277000   1.0435969      0.0075981688   1.0347039     -0.0011306717 
    278000   0.95955814     0.0058189613   0.95207609    -0.00034483515
    279000   0.97221897     0.006948302    0.96476077    -0.00022682232
    280000   1.1109896      0.0066365143   1.1015016     -0.001224445  
    281000   1.0443276      0.0061378901   1.0368892      0.00032930573
    282000   1.0505642      0.0065977777   1.0419511     -0.00079902154
    283000   0.99244239     0.0063879185   0.98407017    -0.00099041706
    284000   0.93573665     0.0056976721   0.92877663     0            
    285000   0.9895999      0.0059640082   0.98223924     0            
    286000   0.92470337     0.0056292776   0.91708398    -0.00074143024
    287000   0.99256872     0.0061131732   0.98370201    -0.001483971  
    288000   0.92676644     0.0065511632   0.91835447    -0.001518667  
    289000   1.0233987      0.0060203664   1.0157866      0            
    290000   1.032589       0.0066568783   1.0245904     -0.00031822233
    291000   1.0128589      0.005950453    1.0053253      0            
    292000   1.0857036      0.0074584149   1.0776281      0            
    293000   0.97457304     0.0063878468   0.96732415     0            
    294000   1.0165864      0.0068544302   1.009025       0            
    295000   0.99067758     0.0062612896   0.98333357     2.4670862e-05
    296000   0.95398853     0.0056671074   0.94654894    -0.0003438122 
    297000   0.94678059     0.0067533763   0.93784138    -0.001897036  
    298000   1.0692982      0.0074858059   1.0605743     -0.00077039979
    299000   1.051526       0.0064683002   1.0419215     -0.0017832502 
    300000   0.95266481     0.0067546058   0.94393021    -0.0016486616 
    301000   1.0284397      0.0075470433   1.0210589      0.00026876965
    302000   1.0308172      0.0063348432   1.0228167     -0.00033326901
    303000   0.93227374     0.005787442    0.92283196    -0.0025075093 
    304000   0.9737681      0.0059996741   0.96687991     0.00035471202
    305000   0.95899112     0.005694909    0.94912332    -0.0027348062 
    306000   0.91486515     0.0051845343   0.9092867      0.0012263346 
    307000   0.95886473     0.005719105    0.95168451    -4.8167657e-05
    308000   0.98953522     0.0060785414   0.98163456    -0.00054047825
    309000   0.96940654     0.0060793325   0.95876724    -0.0034288456 
    310000   0.97729119     0.0055864302   0.97002561     3.5249121e-06
    311000   0.98301633     0.0067371178   0.97293962    -0.0027650174 
    312000   0.9825432      0.0063264747   0.97448505    -0.00074997573
    313000   0.9591406      0.005721356    0.95049065    -0.0015158455 
    314000   1.1209584      0.0073574221   1.112586      -3.4652993e-05
    315000   1.0580987      0.0064309154   1.0490588     -0.0011696856 
    316000   1.0330428      0.0072832668   1.0248384     -0.00052062461
    317000   0.99934737     0.0044798503   0.99027689    -0.0016373196 
    318000   1.0008145      0.0050453937   0.99080738    -0.0025630937 
    319000   0.96544895     0.0050142266   0.95450051    -0.0037674102 
    320000   0.98216224     0.0055943004   0.97433395    -0.00052295051
    321000   1.0774262      0.0074402347   1.0653986     -0.0040136723 
    322000   0.9725841      0.0056903494   0.96373473    -0.0016152691 
    323000   1.0007946      0.0059309869   0.99205803    -0.001292625  
    324000   1.0110857      0.0060310068   1.0034281     -0.00013715613
    325000   0.95805478     0.0056145648   0.94927891    -0.0016498414 
    326000   1.0511323      0.0072508324   1.0414281     -0.0018858775 
    327000   0.95964325     0.0053821254   0.95250541     0            
    328000   0.98858311     0.0059856329   0.98055671    -0.00067330177
    329000   1.0334418      0.0066728973   1.0274027      0.0016476054 
    330000   1.0362423      0.0063828214   1.0266686     -0.0018661101 
    331000   1.0107072      0.004789259    0.99979451    -0.0033950107 
    332000   1.0021575      0.0064552638   0.99259806    -0.0021053638 
    333000   1.0933113      0.0053024899   1.0834697     -0.0017095324 
    334000   1.0395348      0.0061883558   1.0317953     -7.4410219e-06
    335000   0.98690524     0.005300685    0.97945059    -0.00011402299
    336000   0.94553171     0.0053155588   0.93693781    -0.0015610148 
    337000   0.95621177     0.0055421308   0.94799752    -0.0011019341 
    338000   1.0040635      0.0062000994   0.99547569    -0.0011195869 
    339000   1.0087795      0.0067440382   1.0016506      0.00037437478
    340000   1.0189722      0.0058098991   1.0102486     -0.0011444976 
    341000   1.0549978      0.0073639802   1.0464491     -0.00070159844
    342000   0.96793241     0.0057376739   0.95771581    -0.0030171044 
    343000   0.96781256     0.0058341189   0.96049534    -0.00011861118
    344000   1.0079484      0.0067040244   0.99797397    -0.0024772444 
    345000   1.0032947      0.0059521282   0.9958773      4.5099347e-05
    346000   1.0930458      0.0058683873   1.0836021     -0.0013136084 
    347000   0.94721066     0.0066343954   0.94016533     4.426956e-08 
    348000   1.0149244      0.005267453    1.0074192      4.3782607e-05
    349000   0.99454532     0.0062371629   0.98756002     0.00041214019
    350000   1.0317295      0.0067393193   1.0234818     -0.00057366907
    351000   1.005842       0.0063924215   0.99807588    -0.00028469894
    352000   0.96218663     0.006340922    0.95502987     0            
    353000   0.97319605     0.0062954087   0.96629954     0.00034213105
    354000   1.0679358      0.007137318    1.0599925      0            
    355000   1.0286474      0.0066886641   1.0209964      0            
    356000   1.021074       0.0058388249   1.0134793      0            
    357000   0.97826108     0.0054752608   0.97041829    -0.00056646533
    358000   0.98561589     0.0058108242   0.97866703     0.0003821629 
    359000   0.98231992     0.006047819    0.97261644    -0.0023969628 
    360000   0.98515137     0.0062922935   0.97642945    -0.0013943486 
    361000   0.97230372     0.0058018957   0.96381209    -0.0012596167 
    362000   0.96133024     0.0049663832   0.95253139    -0.0016484549 
    363000   0.96216071     0.0063576189   0.95500415     3.8331185e-10
    364000   0.94802828     0.0060452505   0.93941198    -0.0015648563 
    365000   1.0637702      0.0061325045   1.0562004      0.00034252289
    366000   1.0076355      0.0053483717   1.0001407      0            
    367000   1.0212287      0.0074285579   1.0125836     -0.0010490989 
    368000   0.95404449     0.0052346753   0.94312793    -0.0038203613 
    369000   1.0448959      0.0056330532   1.0346294     -0.002494564  
    370000   1.0510238      0.0082231773   1.0410726     -0.0021336604 
    371000   1.0333593      0.0062713068   1.0228514     -0.0028217118 
    372000   0.97482973     0.0066443517   0.96702994    -0.00054899017
    373000   0.98257561     0.0061689467   0.97543431     0.00016710858
    374000   0.90617736     0.0053315624   0.89935959    -7.7599659e-05
    375000   1.0172322      0.006229433    1.0087896     -0.00087642487
    376000   0.99181518     0.0061828234   0.98443804     0            
    377000   0.9887961      0.0053420875   0.98113937    -0.00030204611
    378000   1.0389322      0.0052470292   1.0312046      0            
    379000   0.98895245     0.0053158262   0.98124945    -0.0003471573 
    380000   1.0665027      0.0063819175   1.0585701      4.8708307e-09
    381000   0.98068805     0.0059067561   0.97339367     1.3297414e-10
    382000   1.0362166      0.0063635422   1.0285092      0            
    383000   0.99319965     0.0066489      0.98391203    -0.0019001813 
    384000   0.9915765      0.0062093154   0.9823102     -0.001890928  
    385000   1.0516802      0.0059743001   1.0437982     -5.9523515e-05
    386000   0.99717813     0.0071834482   0.98864231    -0.0011187906 
    387000   0.96851977     0.0059616609   0.96119482    -0.00012108134
    388000   1.0248817      0.0062860322   1.0149225     -0.0023360986 
    389000   1.0684778      0.0071484102   1.0719318      0.011401375  
    390000   0.94579316     0.0058489642   0.93598605    -0.0027722918 
    391000   0.98855761     0.0057698009   0.97759256    -0.0036121466 
    392000   0.98206022     0.0055319085   0.97310275    -0.0016528895 
    393000   1.0489342      0.0072754979   1.0411322      0            
    394000   0.93965901     0.0049098555   0.9297591     -0.0029107091 
    395000   1.0130147      0.0056059523   1.003827      -0.0016528787 
    396000   1.0620329      0.0067595304   1.050954      -0.0031794478 
    397000   0.97224329     0.0055127199   0.96483028    -0.0001814403 
    398000   1.0017987      0.0049018675   0.99344466    -0.00090268592
    399000   1.0008666      0.0062969999   0.99332203    -0.00010012542
    400000   1.0156276      0.0058462699   1.0069098     -0.0011635708 
    401000   1.0874456      0.0063728257   1.0760561     -0.0033010031 
    402000   1.0284566      0.0065679491   1.020535      -0.00027196585
    403000   0.98667897     0.006505029    0.97776653    -0.0015735053 
    404000   0.91708706     0.0052058387   0.90745481    -0.0028109372 
    405000   0.97736634     0.0062588475   0.96993129    -0.00016537603
    406000   0.93604279     0.0046439598   0.92759125    -0.0014892426 
    407000   0.98709584     0.0058571127   0.97810092    -0.0016528921 
    408000   0.96419177     0.0055855016   0.95705451     3.4410462e-05
    409000   1.0773771      0.0056587853   1.0693636      0            
    410000   1.0007321      0.0054037542   0.99328864     0            
    411000   1.0368075      0.0068487833   1.0288241     -0.00027156859
    412000   1.0201062      0.0073655629   1.0125187      0            
    413000   0.96535103     0.0052333836   0.95817073     0            
    414000   1.0175053      0.0051690534   1.0099371      4.2928218e-10
    415000   0.98244013     0.0058033658   0.97512874    -3.9787927e-06
    416000   0.94546778     0.0066590287   0.93835177    -8.3606324e-05
    417000   1.0319906      0.0060202649   1.0243432      2.8630868e-05
    418000   0.99010782     0.0066738432   0.98269945    -4.3934514e-05
    419000   0.99485898     0.0060270429   0.98624519    -0.0012140085 
    420000   1.0114015      0.0067585223   1.0022523     -0.001626357  
    421000   1.022734       0.0062775656   1.013688      -0.0014388483 
    422000   1.0726735      0.0068429709   1.0644528     -0.00024217088
    423000   1.0535403      0.0058315338   1.0457041      0            
    424000   1.0225349      0.007126298    1.0174421      0.0025127724 
    425000   0.99110145     0.0056768838   0.98372962     0            
    426000   0.97480262     0.005689829    0.96391081    -0.0036412131 
    427000   1.0239326      0.0064875326   1.0154437     -0.00087284917
    428000   0.99020166     0.0062554323   0.98283653     0            
    429000   0.98607097     0.0058987939   0.97909438     0.00035782655
    430000   0.95762405     0.0060898761   0.95129419     0.00079296205
    431000   0.94912831     0.0056252312   0.9423504      0.00028172434
    432000   1.0503923      0.0077273642   1.0425795      0            
    433000   1.0518045      0.006717161    1.0427473     -0.0012338757 
    434000   1.0470825      0.0063692686   1.0392943      0            
    435000   0.98855132     0.0058029515   0.97861819    -0.0025802753 
    436000   1.0110595      0.005999672    1.0026813     -0.00085789147
    437000   0.9442998      0.0052288505   0.93779664     0.00052055373
    438000   0.95413877     0.0065480705   0.94681556    -0.00022630646
    439000   1.0056063      0.0054341085   0.99812659     0            
    440000   0.96166255     0.0056257433   0.95450969     2.1858105e-15
    441000   0.96770583     0.0064444557   0.96032874    -0.00017928301
    442000   1.0762484      0.0056395502   1.0671074     -0.0011358657 
    443000   1.0225671      0.0043957037   1.0142587     -0.00070255957
    444000   0.97984287     0.0062420659   0.97178704    -0.00076773605
    445000   1.0850495      0.0071468635   1.0758765     -0.0011023265 
    446000   0.95749479     0.0065612737   0.95037293     0            
    447000   0.9705708      0.005243152    0.96335167     0            
    448000   1.0241727      0.0056031948   1.0143628     -0.0021920474 
    449000   1.0527381      0.0067951346   1.0434393     -0.0014685424 
    450000   0.96725344     0.0063691791   0.960059       0            
    451000   0.99803792     0.0063634515   0.98910182    -0.0015126764 
    452000   0.96832195     0.0067714393   0.96111955     0            
    453000   0.97038132     0.0064133947   0.96364609     0.00048248031
    454000   0.99496897     0.0061949008   0.98471905    -0.0028493259 
    455000   0.99063555     0.0064096683   0.98187003    -0.001397155  
    456000   0.9905454      0.0063808581   0.98229932    -0.00087839371
    457000   1.018692       0.0066457119   1.0108245     -0.00029048509
    458000   0.95021868     0.0055063306   0.94315094     0            
    459000   0.97918092     0.0067420555   0.97185474    -4.3017921e-05
    460000   1.0506272      0.0066887687   1.0428109     -1.7152122e-06
    461000   1.1328236      0.0069667104   1.1242702     -0.00012739918
    462000   1.0969195      0.0066441052   1.0887706      9.9563479e-06
    463000   1.0186977      0.0063747611   1.0128731      0.0017524702 
    464000   1.0262748      0.0060679099   1.0186413      0            
    465000   1.0491212      0.0062237787   1.0413178      0            
    466000   0.95184596     0.0059523753   0.9446814     -8.4716179e-05
    467000   0.92073464     0.0058658754   0.91296644    -0.00091975527
    468000   1.0202237      0.0070512341   1.0126355      2.873661e-07 
    469000   0.98989682     0.0063093998   0.98253395     0            
    470000   0.98234019     0.0068227633   0.97540761     0.00037408171
    471000   1.0205671      0.0056199348   1.0129761      0            
    472000   1.02516        0.0063836025   1.0182547      0.00071990518
    473000   0.99793248     0.0064028766   0.99044077    -6.9068961e-05
    474000   1.0513925      0.0054565653   1.041625      -0.001947223  
    475000   1.0399683      0.0066257732   1.032233       0            
    476000   1.030472       0.0054567439   1.0228073      0            
    477000   1.0193159      0.0054515926   1.0124408      0.00070659278
    478000   1.005678       0.0060909773   0.99819772     0            
    479000   0.92074937     0.0059987731   0.91261752    -0.0012833039 
    480000   0.99972925     0.0062558233   0.98975244    -0.0025407989 
    481000   0.96619021     0.005626081    0.9580133     -0.00099037962
    482000   1.0017396      0.0067734346   0.99428886     2.0900333e-07
    483000   0.98884546     0.0053586783   0.98157166     8.1255933e-05
    484000   0.92473369     0.0061189813   0.91551583    -0.0023396749 
    485000   1.0349985      0.0068192211   1.026127      -0.0011731525 
    486000   0.95142679     0.0050215765   0.94425779    -9.2270742e-05
    487000   0.89172295     0.0047517888   0.88463485    -0.00045545073
    488000   0.96889419     0.0051675113   0.96115588    -0.0005316648 
    489000   1.0018272      0.005686946    0.99307993    -0.0012956564 
    490000   0.95038404     0.0070987706   0.94339426     7.9189815e-05
    491000   1.0119084      0.0061357077   1.0043886      6.8510607e-06
    492000   0.97341742     0.0056554326   0.96617713     0            
    493000   1.0308003      0.0073450994   1.0228475     -0.00028572367
    494000   0.970337       0.0058089518   0.9614788     -0.0016408195 
    495000   1.0078533      0.0061841678   1.0003569      0            
    496000   1.0154691      0.0065035972   1.0064333     -0.0014827765 
    497000   0.94431207     0.0061844687   0.93585986    -0.0014283991 
    498000   1.0266293      0.0056686453   1.0189932      0            
    499000   1.0006894      0.0070647304   0.99342645     0.00018019604
    500000   1.0242072      0.0062086114   1.0165891      0            
    501000   1.0580957      0.0067239929   1.0506409      0.000415382  
    502000   1.0197621      0.0062492358   1.0121771      0            
    503000   0.98422835     0.0059082375   0.97592222    -0.00098542351
    504000   0.94414328     0.0057677292   0.93494544    -0.0021752849 
    505000   1.0077209      0.0067114121   1.0002254      0            
    506000   0.94568659     0.0057318754   0.93658078    -0.002071782  
    507000   1.0230921      0.0066047578   1.0152323     -0.00025002637
    508000   0.94950118     0.0062237874   0.94243659    -2.1886133e-06
    509000   0.98165435     0.0061723531   0.97408968    -0.00026310345
    510000   0.9968427      0.0053514394   0.98810075    -0.001327418  
    511000   0.98824584     0.0061453335   0.97924414    -0.0016511135 
    512000   0.98144907     0.0056982065   0.97395065    -0.00019839453
    513000   0.97551223     0.0062854217   0.96825635     0            
    514000   0.99502442     0.0064656024   0.98772262     9.9210359e-05
    515000   1.1259407      0.0061438345   1.1175701      4.0933367e-06
    516000   1.0267636      0.0058497823   1.0174737     -0.0016528906 
    517000   1.0347309      0.0076935343   1.0266807     -0.00035382238
    518000   0.94629408     0.006166793    0.93925553     0            
    519000   1.0385443      0.0069065359   1.0308196      0            
    520000   0.9925085      0.0068054336   0.9846017     -0.00052450053
    521000   0.97261615     0.0067857083   0.96452327    -0.0008585445 
    522000   1.0306869      0.0063575689   1.0202229     -0.0027976992 
    523000   0.98720412     0.0062260223   0.97962678    -0.00023449773
    524000   0.98250439     0.0067044708   0.97447579    -0.00072071337
    525000   0.97611685     0.0058794053   0.96725153    -0.0016049493 
    526000   0.99359458     0.0066996426   0.98616681    -3.7398433e-05
    527000   0.97742876     0.0059083077   0.97015907     4.4441317e-07
    528000   0.96315086     0.005673156    0.95598693     0            
    529000   0.9696605      0.0059928345   0.96163505    -0.00081309954
    530000   1.0050149      0.0050838462   0.99594394    -0.0015956072 
    531000   1.035491       0.0062253879   1.026191      -0.0015980675 
    532000   1.0095847      0.0065503867   1.0020318     -4.3597332e-05
    533000   0.94840895     0.0057320469   0.94112339    -0.00023128058
    534000   0.94752372     0.0056197011   0.9408719      0.00039587374
    535000   0.96405391     0.0062907257   0.95688326     0            
    536000   0.93797528     0.0047228885   0.93099861     0            
    537000   1.0317414      0.0062260016   1.0240559     -1.1389659e-05
    538000   1.0701782      0.0066760426   1.0622201      1.8327378e-06
    539000   0.99807486     0.0060573104   0.99072208     7.0911674e-05
    540000   0.97753181     0.0066165132   0.9692834     -0.00097750653
    541000   0.9941827      0.0060885303   0.98547879    -0.0013091628 
    542000   0.9474982      0.0060251183   0.9387978     -0.0016528896 
    543000   1.0621896      0.0055247423   1.0548376      0.00054864097
    544000   1.0120017      0.005886141    1.0043277     -0.00014671347
    545000   1.0183108      0.0069112886   1.0113951      0.00065850604
    546000   0.95202576     0.0063747536   0.94494458     0            
    547000   1.1095153      0.0070792402   1.1000229     -0.0012397868 
    548000   1.088397       0.0069762814   1.0811997      0.00089818918
    549000   0.93187579     0.0049316384   0.92494448     0            
    550000   1.021842       0.0072582009   1.0145357      0.0002942288 
    551000   1.0277883      0.0057979814   1.0201436      0            
    552000   0.98988233     0.0055462907   0.98192206    -0.00059750898
    553000   0.95263771     0.0061306696   0.94395741    -0.0015945592 
    554000   0.99239196     0.0058297291   0.98219925    -0.0028112762 
    555000   1.0674408      0.0066347694   1.0566967     -0.0028045467 
    556000   1.0020932      0.0054292611   0.99193342    -0.0027062331 
    557000   1.0189749      0.0063451432   1.0104534     -0.00094226861
    558000   0.97596473     0.0056845223   0.96855093    -0.000154558  
    559000   0.97450449     0.0059581418   0.96725611     0            
    560000   1.0214333      0.0073348987   1.0138359      0            
    561000   0.94455887     0.0058895751   0.93760097     6.7749337e-05
    562000   0.97171179     0.006105911    0.96367217    -0.00081201249
    563000   1.0433725      0.0069991617   1.035606      -5.9423077e-06
    564000   0.98138239     0.0058028471   0.97408286     0            
    565000   1.0630498      0.007278097    1.0551428      0            
    566000   0.99152989     0.0059861596   0.9835192     -0.00063566967
    567000   1.061192       0.0070361923   1.0532989      0            
    568000   1.0455504      0.0066688452   1.0369588     -0.00081476765
    569000   0.99448733     0.0062486112   0.98709032     0            
    570000   0.94408945     0.0050428072   0.93810672     0.0010394229 
    571000   0.94431488     0.0059622619   0.93859844     0.0013073875 
    572000   1.0204982      0.0065063331   1.0129078      0            
    573000   1.014651       0.0051491617   1.007104       0            
    574000   1.0567532      0.0065554802   1.0487747     -0.00011829517
    575000   0.97107949     0.0064823236   0.96353952    -0.00031706987
    576000   1.0410782      0.0060864918   1.0333346      0            
    577000   0.9434372      0.0055016559   0.9364199      0            
    578000   1.0317886      0.0073101993   1.0258329      0.001718764  
    579000   1.0256715      0.0066538052   1.0154522     -0.0025903966 
    580000   1.0278693      0.0058324726   1.0192028     -0.0010212424 
    581000   0.97460002     0.0066130938   0.96646925    -0.00088167155
    582000   1.0197182      0.0060384222   1.0088282     -0.0033053702 
    583000   0.97904112     0.005791775    0.97010639    -0.0016526099 
    584000   0.94319629     0.0057525149   0.93269524    -0.0034855387 
    585000   1.0714854      0.0068106364   1.0617805     -0.0017352316 
    586000   1.0099252      0.0066854896   1.0013968     -0.0010165585 
    587000   0.95373327     0.0062910146   0.94453231    -0.0021070746 
    588000   0.92342449     0.0056597617   0.91655642     3.8378329e-07
    589000   0.96455371     0.0055089466   0.95564516    -0.0017341911 
    590000   1.0519921      0.0063497691   1.0439989     -0.00016847707
    591000   1.0184955      0.0050661834   1.0109199      0            
    592000   0.99535192     0.0057069471   0.98794848     0            
    593000   0.98330974     0.0065478503   0.97599587     0            
    594000   0.99786367     0.006483373    0.99044154     0            
    595000   0.99966698     0.0052259912   0.99223144     0            
    596000   1.0734453      0.006624026    1.0638109     -0.0016500518 
    597000   0.9993711      0.0063619585   0.99215558     0.00021782269
    598000   0.95315087     0.0052436259   0.94507632    -0.00098499958
    599000   0.9837695      0.006635615    0.9764522      0            
    600000   1.0061373      0.0060620291   0.99865366     0            
    601000   1.0003811      0.0054703295   0.99294026     0            
    602000   1.0115302      0.0059586701   1.0080237      0.0040172737 
    603000   1.0235981      0.005821627    1.0159845      0            
    604000   0.95491996     0.0055856172   0.94781725     0            
    605000   0.97592403     0.0068879049   0.96821074    -0.00045435068
    606000   1.0412902      0.0056454037   1.0334922     -5.2911888e-05
    607000   0.96694478     0.0065559681   0.95929078    -0.00046185835
    608000   1.0249972      0.0060354288   1.016535      -0.00083824387
    609000   0.95332192     0.004742134    0.94490017    -0.0013309295 
    610000   0.98122687     0.0052015372   0.97550231     0.0015738255 
    611000   1.0242115      0.0061983227   1.0164354     -0.00015794046
    612000   0.96523356     0.0056557751   0.95728349    -0.00077065165
    613000   1.0230461      0.006514191    1.0164061      0.00096948542
    614000   1.0236547      0.0061251418   1.0129855     -0.0030551943 
    615000   1.0165375      0.0063476606   1.0078696     -0.0011069306 
    616000   0.97663624     0.0062459711   0.96783412    -0.0015378793 
    617000   0.99720079     0.0060275714   0.9873566     -0.0024269913 
    618000   0.92504407     0.0068013449   0.91779703    -0.00036654872
    619000   0.96790151     0.0053849633   0.96095599     0.0002537541 
    620000   0.9910231      0.0055426853   0.98365186     0            
    621000   1.0189469      0.0066326087   1.010104      -0.0012640225 
    622000   0.99760747     0.0068791929   0.98694489    -0.003242357  
    623000   1.0527196      0.0067868629   1.0449522      6.269976e-05 
    624000   0.96445858     0.0067171503   0.95606251    -0.0012224107 
    625000   0.9113811      0.0050774581   0.90460224     3.2279025e-09
    626000   1.0008156      0.006704478    0.99079512    -0.0025764353 
    627000   1.0796087      0.0081201051   1.0715785      0            
    628000   0.98435143     0.0056346741   0.9757918     -0.0012380088 
    629000   0.96283985     0.0061291754   0.95402534    -0.0016528918 
    630000   0.9913842      0.0055299343   0.98379151    -0.00021875561
    631000   0.97089524     0.0060985679   0.96308954    -0.00058416948
    632000   0.9625673      0.0052456932   0.95538146    -2.6245935e-05
    633000   0.99413574     0.0054589682   0.98471242    -0.0020289259 
    634000   1.0512286      0.0060596561   1.0423939     -0.0010156534 
    635000   1.0140381      0.0055461345   1.0058446     -0.00065107738
    636000   0.97479077     0.0056245243   0.96754026     0            
    637000   0.95303164     0.006037798    0.94594297     0            
    638000   1.0169084      0.0053346686   1.0077249     -0.0016196593 
    639000   1.0264747      0.0063258577   1.0188416      1.7933384e-06
    640000   0.94169299     0.0062553113   0.93347285    -0.0012158128 
    641000   0.99517691     0.0059403453   0.98777477     0            
    642000   0.99313649     0.0063721432   0.98574953     0            
    643000   0.98388772     0.0055567829   0.97656955     0            
    644000   1.021442       0.006493038    1.0138445      0            
    645000   0.99870041     0.0060394765   0.99127123    -8.3195479e-07
    646000   1.0276573      0.0065943271   1.0200136      0            
    647000   0.97949038     0.0054735924   0.97220491     0            
    648000   0.98673491     0.0061695339   0.97939556     0            
    649000   1.0072434      0.0057574584   1.0004998      0.00074824873
    650000   0.98278368     0.0058147537   0.97591616     0.00044244315
    651000   0.99180993     0.0063295163   0.98442214    -1.0683851e-05
    652000   1.0259247      0.0069573119   1.0183244      3.0562363e-05
    653000   1.0064987      0.0065133086   0.99736148    -0.0016508302 
    654000   1.0017016      0.0063903442   0.99425093     0            
    655000   0.92000005     0.0060688748   0.91185996    -0.0012971083 
    656000   0.95700982     0.0054708282   0.94781051    -0.0020810538 
    657000   0.96551961     0.0058663947   0.9578646     -0.00047346145
    658000   1.035277       0.0061862718   1.024976      -0.002600616  
    659000   1.0134609      0.0061206987   1.0050156     -0.00090721305
    660000   1.0039351      0.0061141947   0.99691448     0.0004466147 
    661000   1.0220902      0.0063538612   1.0138319     -0.0006559841 
    662000   0.93605672     0.0053363701   0.92906995    -2.4363488e-05
    663000   1.0121957      0.0072108374   1.0038894     -0.00077761587
    664000   0.99414298     0.00606242     0.98622423    -0.00052430195
    665000   1.0282618      0.0057455303   1.0221434      0.0015297911 
    666000   0.93709114     0.0062902884   0.92876102    -0.0013600195 
    667000   1.0663506      0.0063771683   1.0582606     -0.00015843491
    668000   0.95565631     0.0060172292   0.94854812     0            
    669000   1.0421462      0.0063504259   1.0343947      0            
    670000   1.0055501      0.0063439331   0.9980708      0            
    671000   0.98713797     0.0059063652   0.97979562     0            
    672000   1.0448863      0.0066400496   1.0372155      0.000101043  
    673000   1.0454766      0.0064571247   1.0396635      0.0019631857 
    674000   0.9896723      0.0068715326   0.98231111     0            
    675000   1.0055734      0.0052538855   0.9980939      0            
    676000   0.94199481     0.0062683353   0.93498824     0            
    677000   1.0019502      0.0066656533   0.99459235     9.4682062e-05
    678000   1.0220852      0.0067077476   1.0144829      0            
    679000   1.006008       0.0064341638   0.99852528     0            
    680000   1.013674       0.0057254665   1.0061343      1.81014e-08  
    681000   0.95455218     0.0051563698   0.94746069     8.485441e-06 
    682000   0.89661931     0.0046444982   0.88995025     0            
    683000   0.99846812     0.0074297533   0.9910415      1.1299595e-09
    684000   1.0412238      0.0061770028   1.0325758     -0.00090337304
    685000   0.97073708     0.0061632197   0.96351289    -3.8271765e-06
    686000   0.93237968     0.0050194039   0.92557461     0.00012998665
    687000   0.96300827     0.0057976842   0.9558454      0            
    688000   1.0105684      0.0050477026   1.0030331     -1.875306e-05 
    689000   1.0079777      0.0059524497   1.0004804      0            
    690000   1.0171762      0.0072384427   1.0093734     -0.00023703021
    691000   0.97975155     0.0063718687   0.97246414     0            
    692000   1.0181527      0.0054941058   1.0105798      1.2395695e-07
    693000   1.0018699      0.0048580532   0.99703791     0.0026199557 
    694000   0.99120112     0.006438457    0.98228929    -0.0015392585 
    695000   0.92415326     0.0058727018   0.91604493    -0.0012344618 
    696000   1.0607553      0.006909195    1.0545735      0.0017081764 
    697000   0.94249518     0.0052370606   0.93580918     0.00032429291
    698000   0.95341461     0.006004671    0.94474437    -0.0015787259 
    699000   1.0092991      0.0060713388   1.0001752     -0.0016166828 
    700000   0.99756073     0.0066681942   0.99014086     0            
    701000   1.0313804      0.0065817633   1.022366      -0.001342917  
    702000   1.0659821      0.0066214906   1.0568692     -0.0011840821 
    703000   1.0690353      0.0070297399   1.0600927     -0.00099108157
    704000   1.0349293      0.0062944394   1.0259999     -0.0012315799 
    705000   1.0245774      0.0064066806   1.0169566      2.6954087e-10
    706000   1.0124671      0.0058332277   1.0036167     -0.0013196539 
    707000   1.0760235      0.0076978992   1.0703248      0.0023047678 
    708000   0.97386752     0.0047280534   0.96527299    -0.0013508791 
    709000   0.99154559     0.0062374464   0.98310738    -0.0010630757 
    710000   1.0364957      0.0064993069   1.0284337     -0.00035257686
    711000   1.0826128      0.0073748606   1.0745553     -5.0115511e-06
    712000   1.0051502      0.0056946612   0.99767392     0            
    713000   1.1034924      0.0061401583   1.0952846      0            
    714000   1.029082       0.0073603202   1.0214277      0            
    715000   0.9740041      0.0054750961   0.96725667     0.00049722581
    716000   1.0250298      0.0063398178   1.0174056      0            
    717000   1.0200029      0.00597184     1.0124298      1.3773637e-05
    718000   1.0373795      0.0062643615   1.029567      -9.6450933e-05
    719000   0.98379024     0.0058644496   0.97590682    -0.00056597361
    720000   1.0257523      0.0067195444   1.0181227      3.0445044e-09
    721000   0.9341735      0.0056500636   0.92715985    -6.5258293e-05
    722000   1.0451211      0.006230796    1.0352802     -0.0020672527 
    723000   0.94564677     0.0060146656   0.93853314    -7.9895702e-05
    724000   0.98902695     0.0058818927   0.98040685    -0.0012637089 
    725000   0.97159256     0.0056264676   0.96683276     0.0024669216 
    726000   1.0216164      0.006974609    1.0126221     -0.0013955129 
    727000   1.0092977      0.0069749086   1.0018518      6.1331084e-05
    728000   0.95337984     0.0062685045   0.94486409    -0.0014245013 
    729000   1.0349506      0.0071226213   1.0246102     -0.0026423608 
    730000   1.0045075      0.0071428918   0.99423452    -0.0028013889 
    731000   1.0135784      0.0070258379   1.0045116     -0.0015278195 
    732000   1.0089426      0.0061011292   0.99978515    -0.0016528923 
    733000   0.98978891     0.0063046832   0.98224768    -0.00017916534
    734000   0.99356253     0.0062780892   0.98323549    -0.0029368968 
    735000   1.0128111      0.0062579433   1.0019851     -0.0032927632 
    736000   0.94213599     0.0058845869   0.9329791     -0.0021492615 
    737000   0.97963706     0.0057455976   0.97236834     1.7845596e-05
    738000   1.024427       0.0060504211   1.018262       0.0014547046 
    739000   1.0060642      0.0050363337   0.99767063    -0.0009104533 
    740000   0.9456621      0.006823824    0.9372595     -0.0013687511 
    741000   1.0145913      0.005041567    1.0069039     -0.00014081317
    742000   0.94327942     0.0053794055   0.93626329     0            
    743000   1.0160623      0.0062516017   1.0052176     -0.0032872429 
    744000   0.97743785     0.0063494409   0.96789425    -0.0022734024 
    745000   1.0075692      0.0054860811   0.99995489    -0.00011996766
    746000   0.99258166     0.0055712375   0.98510603    -9.2788912e-05
    747000   0.96310027     0.0064034173   0.95422554    -0.0017111829 
    748000   0.94651171     0.0056757847   0.93947154     0            
    749000   1.0540066      0.007595527    1.0461531     -1.3767366e-05
    750000   0.98735485     0.0055093142   0.97999145    -1.9439007e-05
    751000   1.028417       0.0058741971   1.0207676      0            
    752000   1.0541603      0.0064153444   1.045801      -0.00051836736
    753000   1.0569801      0.007066308    1.0491183      1.8391409e-09
    754000   1.0290032      0.0058603018   1.0204669     -0.00088249085
    755000   0.98909335     0.0064889569   0.98066504    -0.0010714125 
    756000   0.94355663     0.0048538865   0.93488954    -0.0016488963 
    757000   1.0065876      0.0067883887   0.9995107      0.00041013281
    758000   0.94517449     0.0057269571   0.93764169    -0.00050256974
    759000   0.95503945     0.0057957578   0.94804389     0.00010804449
    760000   0.99575614     0.0071767711   0.98784368    -0.00050600963
    761000   1.0616577      0.0060550392   1.0524181     -0.0013429956 
    762000   1.0195264      0.0053529677   1.0103491     -0.0015939919 
    763000   1.0698147      0.0066074967   1.0603909     -0.0014665321 
    764000   1.0442965      0.0062569945   1.0365291      2.4196021e-08
    765000   1.0247079      0.005583854    1.0169428     -0.00014328411
    766000   0.92388886     0.0053266817   0.91707573     5.8773455e-05
    767000   1.0307869      0.0056545      1.0214724     -0.0016474848 
    768000   1.0498102      0.0058732053   1.0420017      0            
    769000   1.0088164      0.0058739937   1.0005267     -0.00078609387
    770000   0.99119151     0.0056372336   0.98473559     0.00091657528
    771000   0.94999171     0.0062200431   0.94292565     0            
    772000   1.0160158      0.0062893188   1.0069852     -0.0014735005 
    773000   0.97935692     0.0057694067   0.97082983    -0.0012426179 
    774000   0.86675204     0.0050492749   0.8601684     -0.00013672645
    775000   0.98798607     0.0063433829   0.98062317    -1.4243192e-05
    776000   1.0276499      0.0061910866   1.0192593     -0.00074698284
    777000   0.97519211     0.0057511464   0.96663219    -0.0013064293 
    778000   0.97148759     0.0058520778   0.96479619     0.00053453497
    779000   0.9907277      0.006619635    0.98335865     0            
    780000   1.090826       0.0069352268   1.0827124      0            
    781000   1.0480137      0.0067341928   1.0402186      0            
    782000   0.99237149     0.0069367149   0.98499364     3.4256965e-06
    783000   1.053074       0.0066837583   1.0436957     -0.0015454925 
    784000   1.0091257      0.0058413985   1.0014222     -0.00019764691
    785000   0.98132553     0.0061098677   0.97445512     0.00042870416
    786000   0.99159975     0.0066707954   0.98422421     0            
    787000   1.0704523      0.0059795829   1.0624903      0            
    788000   1.0040153      0.0060352664   0.99654742     0            
    789000   0.94492261     0.0065868372   0.93789426     0            
    790000   0.94826062     0.0052576429   0.94120744     0            
    791000   1.0206999      0.006259144    1.0135775      0.00046952125
    792000   1.0602142      0.0057025864   1.0514895     -0.00083878754
    793000   0.9511377      0.0064843974   0.94406312     0            
    794000   0.97057575     0.0064577258   0.96426634     0.00090974628
    795000   1.0114519      0.00648946     1.0039644      3.5714447e-05
    796000   0.9393804      0.0056038739   0.93033248    -0.0020607883 
    797000   1.0103858      0.0066975259   1.0024986     -0.00037188584
    798000   0.99378697     0.0063176664   0.98442068    -0.0019744894 
    799000   1.0201297      0.0066272024   1.0111716     -0.0013703424 
    800000   1.0222798      0.0066701215   1.0155346      0.0008585663 
    801000   1.0364372      0.0060715061   1.0280426     -0.00068554954
    802000   1.059538       0.0066243041   1.0513514     -0.00030572549
    803000   1.0786908      0.0061722669   1.0707369      6.9418926e-05
    804000   0.97851524     0.0056771147   0.97124132     4.2920586e-06
    805000   0.99758995     0.0062492153   0.99050135     0.00033149202
    806000   0.97522555     0.0055521538   0.96634963    -0.0016221748 
    807000   1.0116976      0.0069492901   1.0029197     -0.0012529351 
    808000   0.89461789     0.0055553701   0.89065377     0.0026900626 
    809000   1.0284647      0.0061748334   1.0183259     -0.0024891105 
    810000   1.002722       0.0065230313   0.99374831    -0.0015154573 
    811000   0.97834655     0.0051307071   0.97107148     1.8824991e-06
    812000   1.0408055      0.0065949182   1.033064       0            
    813000   0.99833822     0.0062524242   0.99091256     0            
    814000   1.027527       0.0066227072   1.0198888      4.5767102e-06
    815000   1.0092263      0.0065888065   1.0000822     -0.0016373971 
    816000   0.98909152     0.0075217992   0.98017716    -0.0015574764 
    817000   0.96809421     0.0076974978   0.95971084    -0.0011826765 
    818000   0.99479886     0.0061095606   0.98682251    -0.00057701456
    819000   1.0428477      0.0061778125   1.0343693     -0.00072168506
    820000   0.95833685     0.0057587691   0.9489534     -0.0022553216 
    821000   0.98336928     0.0067164842   0.97471403    -0.0013409342 
    822000   1.0224882      0.0064084087   1.0133979     -0.0014850208 
    823000   1.0288029      0.0063645038   1.0184304     -0.0027202913 
    824000   1.0406541      0.0056248475   1.0328393     -7.440456e-05 
    825000   1.0165602      0.0068911936   1.0063183     -0.0026806342 
    826000   0.98861601     0.0059683073   0.98033394    -0.00092873444
    827000   0.97297003     0.0057072849   0.96572658    -6.4805419e-06
    828000   0.95139576     0.0053170052   0.94431927     0            
    829000   0.96076869     0.0064750229   0.95362247     0            
    830000   0.99715479     0.0062880642   0.98973794     0            
    831000   0.96915396     0.0054177791   0.96194538     4.8486683e-09
    832000   0.96390903     0.0054251665   0.95553878    -0.0012006736 
    833000   1.0061728      0.0058043401   0.99624194    -0.0024469798 
    834000   1.0254661      0.0056852807   1.0177997     -3.8985282e-05
    835000   0.94519158     0.0055314801   0.93534512    -0.0028161169 
    836000   1.0173196      0.0061637633   1.0085377     -0.0012150544 
    837000   1.0303048      0.006654013    1.0194679     -0.0031734784 
    838000   1.0576529      0.006621808    1.0483114     -0.0014746889 
    839000   0.99458753     0.0056118176   0.98545338    -0.0017363827 
    840000   1.0288423      0.0064300137   1.0200548     -0.001134931  
    841000   0.98284298     0.0061825097   0.97503296    -0.0004996195 
    842000   0.98670516     0.0063877338   0.97773127    -0.001634765  
    843000   0.98288769     0.0060652562   0.97448836    -0.0010886011 
    844000   1.0149678      0.0069146316   1.0074381      1.9563439e-05
    845000   1.0576033      0.0065492357   1.0483708     -0.0013660862 
    846000   1.053752       0.0070206671   1.0448364     -0.0010777994 
    847000   0.99434306     0.0061219624   0.98520442    -0.0017426995 
    848000   1.0288438      0.0070953461   1.0208685     -0.00032267202
    849000   0.95397212     0.0057934196   0.94687646     0            
    850000   1.0767001      0.0063874253   1.0686916      4.1095694e-10
    851000   1.0104161      0.0060273138   1.0029007      0            
    852000   0.9580542      0.0068631736   0.95092818     0            
    853000   0.98821011     0.0066292781   0.98085979     6.8203947e-09
    854000   1.0108139      0.0064778588   1.0023042     -0.000991239  
    855000   0.96101938     0.0061753153   0.9538221     -4.9196476e-05
    856000   1.0451236      0.0073077175   1.0368425     -0.00050753612
    857000   0.90810604     0.0060528856   0.90136702     1.5491967e-05
    858000   1.0186336      0.006830362    1.0118921      0.00083503137
    859000   1.009971       0.006797164    1.0016378     -0.00082104148
    860000   1.0239493      0.0067888524   1.0147458     -0.0015873471 
    861000   1.0269827      0.006289139    1.0193572      1.3209042e-05
    862000   1.0310645      0.0055665521   1.0217777     -0.0016176462 
    863000   1.0113397      0.0069972154   1.0038174      0            
    864000   1.0237634      0.0070225489   1.0161505      1.7880278e-06
    865000   1.0154986      0.0074675146   1.0077955     -0.00014976198
    866000   1.0247011      0.0068232962   1.0170793      0            
    867000   0.97610809     0.0052917843   0.96875228    -9.5496008e-05
    868000   1.0156306      0.0056611291   1.0061619     -0.0019144377 
    869000   0.98919395     0.0058497527   0.98117709    -0.00065922047
    870000   0.98013948     0.0070968658   0.97284926     7.0462986e-08
    871000   0.91328795     0.0065234383   0.90649493     2.9924069e-08
    872000   1.0076713      0.0067568959   1.0001766      2.9290227e-07
    873000   1.0239012      0.0059440471   1.0162854      0            
    874000   0.9912809      0.0052766246   0.98337454    -0.00053320179
    875000   0.99074142     0.0067701376   0.98337227     0            
    876000   0.99986629     0.0052604108   0.99185026    -0.00057900976
    877000   1.0433971      0.005677752    1.0356363      0            
    878000   0.92651943     0.0056583707   0.91962796     0            
    879000   0.99412029     0.0062526789   0.98673614     1.0126286e-05
    880000   1.0056357      0.0057678307   0.9981558      0            
    881000   0.96477774     0.005548392    0.9576017      0            
    882000   1.020842       0.0065024339   1.013249       0            
    883000   0.94060214     0.0062261824   0.93360592     0            
    884000   0.95987612     0.0062721384   0.95292472     0.00018818062
    885000   1.0794526      0.0066610174   1.0714241      4.3580546e-07
    886000   0.98199849     0.0060327655   0.97469437     0            
    887000   0.99890953     0.005678584    0.99147962     0            
    888000   1.0494385      0.0071827678   1.0416328      0            
    889000   1.0056019      0.0058416126   0.99812222     0            
    890000   0.97952021     0.005239738    0.97223452     0            
    891000   1.0004068      0.006601897    0.99296575     0            
    892000   0.96336177     0.0044573322   0.95619627     0            
    893000   1.0521017      0.0067935372   1.0442761      0            
    894000   1.0632494      0.0074794448   1.0546208     -0.00072015571
    895000   1.0286459      0.007376134    1.0206423     -0.00035256709
    896000   0.99445804     0.0064665103   0.98706125     0            
    897000   0.95241475     0.0053600541   0.94540825     7.7576209e-05
    898000   1.0396428      0.0065082466   1.0308304     -0.0010794621 
    899000   1.0098367      0.0065245023   1.0028912      0.00056559673
    900000   1.0180665      0.0069029673   1.0088629     -0.0016312221 
    901000   0.99106149     0.0060860958   0.98340558    -0.00028437816
    902000   1.0543458      0.0054038088   1.0443499     -0.0021537337 
    903000   0.99918176     0.0062775793   0.99174983     0            
    904000   1.0127202      0.0049632762   1.0051875      8.6466779e-09
    905000   1.0093485      0.0064012766   1.001841       1.3238388e-08
    906000   1.0155629      0.005641521    1.0073331     -0.00067599452
    907000   0.99127057     0.0053863067   0.98258579    -0.0013116993 
    908000   0.93425295     0.0058232422   0.92730396     0            
    909000   1.0284417      0.005073796    1.0203895     -0.00040265968
    910000   1.0103362      0.0065982258   1.0025136     -0.00030762417
    911000   0.98342972     0.0062320451   0.97546277    -0.00065218502
    912000   1.0738027      0.006612287    1.0658157      0            
    913000   0.95676477     0.0058922768   0.94964833     0            
    914000   1.0288419      0.0066102665   1.0211894      0            
    915000   0.99611328     0.0057854396   0.98870417     0            
    916000   1.0463735      0.0055965425   1.0385905      0            
    917000   1.0033604      0.0059780519   0.99589736     0            
    918000   0.96311396     0.0059294604   0.9559503      0            
    919000   0.99709148     0.0061826493   0.99006355     0.00038844824
    920000   0.95976139     0.0065869304   0.95320597     0.00058330055
    921000   1.0507303      0.0063921386   1.042915       0            
    922000   0.97362872     0.0062109187   0.96638685     0            
    923000   1.0144296      0.0058753589   1.0068842      0            
    924000   0.98896455     0.0066777045   0.98160862     0            
    925000   1.1523279      0.0071588283   1.1421039     -0.0016528914 
    926000   1.0146742      0.0065976975   1.0057123     -0.0014146883 
    927000   1.0139157      0.0067733655   1.0063742      0            
    928000   0.99474575     0.0066688905   0.98734501    -1.8043385e-06
    929000   0.94650571     0.0054582191   0.93781269    -0.0016528882 
    930000   1.0167524      0.0058753648   1.0082718     -0.00091800026
    931000   0.90178082     0.0068931196   0.89661307     0.001539712  
    932000   1.0010481      0.0062741054   0.99301834    -0.00058393169
    933000   0.99360516     0.0065116949   0.98658427     0.00036956195
    934000   0.99866547     0.0061163635   0.9898555     -0.0013818777 
    935000   0.9225908      0.0056552834   0.91531031    -0.0004182456 
    936000   1.0022749      0.0060076843   0.99317944    -0.0016405147 
    937000   0.99810683     0.0052625508   0.98924253    -0.0014403657 
    938000   1.0083103      0.0060724553   0.99977865    -0.0010317879 
    939000   0.88101857     0.0059478928   0.87446554     0            
    940000   0.99898452     0.0058571055   0.99155406     0            
    941000   0.97497354     0.0062913977   0.96771938    -2.2940092e-06
    942000   1.0332921      0.0064842671   1.0241958     -0.0014106146 
    943000   0.90813584     0.0059008618   0.89945636    -0.0019247477 
    944000   0.99728424     0.0066846046   0.98931079    -0.00055563621
    945000   1.042185       0.0064163337   1.0331393     -0.0012939055 
    946000   1.0004024      0.0054615867   0.99296135     0            
    947000   0.97811139     0.0059094124   0.96930428    -0.0015318962 
    948000   1.0728327      0.0065460213   1.0638082     -0.0010447559 
    949000   0.95229333     0.005728044    0.94575594     0.0005457905 
    950000   1.0459214      0.006721107    1.0338883     -0.0042534945 
    951000   0.96440577     0.0061765756   0.95726111     2.8609357e-05
    952000   1.0170023      0.0058771179   1.0091469     -0.0002909555 
    953000   0.99982754     0.0060777804   0.99247375     8.2943955e-05
    954000   1.0949856      0.0072465037   1.0837849     -0.0030561256 
    955000   1.052804       0.0064176272   1.0446049     -0.00036837787
    956000   1.0128714      0.0063853658   1.0055372      0.00019956027
    957000   1.0158005      0.0054497875   1.008245       0            
    958000   0.96571304     0.0053853306   0.95853005     0            
    959000   1.05587        0.0061974892   1.0499413      0.0019248581 
    960000   1.0109565      0.0058796716   1.0005614     -0.0028756304 
    961000   0.98608549     0.0064197049   0.97875097     0            
    962000   0.98145083     0.0052876214   0.97415078     0            
    963000   0.96788155     0.0066421594   0.95939759    -0.0012848416 
    964000   0.97620882     0.0051179468   0.96898922     4.1459756e-05
    965000   1.0865734      0.0063432413   1.0760238     -0.0024676996 
    966000   1.0426565      0.0064381443   1.0332558     -0.0016454715 
    967000   1.0137697      0.0054870102   1.0057928     -0.00043644524
    968000   0.96342766     0.0063520877   0.95821178     0.0019501101 
    969000   1.0039113      0.0060259068   0.99493282    -0.001511362  
    970000   1.0603865      0.0070573807   1.0498243     -0.0026750366 
    971000   1.0177041      0.0046112001   1.0098088     -0.00032565552
    972000   1.0690916      0.0073565839   1.0596426     -0.001497066  
    973000   1.0597117      0.0067895004   1.0518234     -6.1325431e-06
    974000   0.98505297     0.006234767    0.97768869    -3.7439543e-05
    975000   1.001967       0.0061362445   0.99294439    -0.0015699166 
    976000   0.97829354     0.0055590974   0.97070746    -0.00030952061
    977000   0.98791964     0.0065381108   0.9806335      6.2019219e-05
    978000   0.96302812     0.005595184    0.9558651      0            
    979000   0.98183572     0.0055824826   0.97453281     0            
    980000   0.9727297      0.0053526658   0.96549452     0            
    981000   1.0339482      0.0061300695   1.0260711     -0.00018662353
    982000   0.96347541     0.0063074641   0.95630966     6.0458475e-07
    983000   0.99571742     0.0062151367   0.9870091     -0.0013021558 
    984000   0.94296926     0.0059623478   0.93543613    -0.0005193068 
    985000   1.0164446      0.0063011919   1.0089197      3.5468965e-05
    986000   1.0710827      0.006045975    1.063116       0            
    987000   1.0032124      0.0063454807   0.99592361     0.00017311335
    988000   0.99468974     0.0061174345   0.98728916    -2.0607458e-06
    989000   1.0807264      0.006768994    1.0726078     -8.0150242e-05
    990000   1.006266       0.0057051922   0.99683119    -0.0019501757 
    991000   0.97137953     0.0055749213   0.96419332     3.8931416e-05
    992000   0.95899471     0.0051465297   0.95186169     0            
    993000   0.94531764     0.0067388499   0.93828636     0            
    994000   0.94851745     0.0065955225   0.93917452    -0.0022878417 
    995000   0.9581876      0.0063008296   0.95109031     2.9722988e-05
    996000   1.0042182      0.0067181354   0.99108401    -0.0056647935 
    997000   1.0018616      0.0064826033   0.9919355     -0.0024742501 
    998000   1.0253841      0.0054771468   1.0161383     -0.0016190055 
    999000   0.98215678     0.0064128886   0.97454917    -0.00030230886
   1000000   0.98334311     0.0061377901   0.97567596    -0.00035303143
Loop time of 27.5284 on 1 procs for 1000000 steps with 605 atoms

Performance: 31385802.703 tau/day, 36326.161 timesteps/s
98.6% CPU use with 1 MPI tasks x no OpenMP threads

MPI task timing breakdown:
Section |  min time  |  avg time  |  max time  |%varavg| %total
---------------------------------------------------------------
Pair    | 1.2193     | 1.2193     | 1.2193     |   0.0 |  4.43
Bond    | 0.043462   | 0.043462   | 0.043462   |   0.0 |  0.16
Neigh   | 6.659      | 6.659      | 6.659      |   0.0 | 24.19
Comm    | 1.3127     | 1.3127     | 1.3127     |   0.0 |  4.77
Output  | 0.49683    | 0.49683    | 0.49683    |   0.0 |  1.80
Modify  | 15.745     | 15.745     | 15.745     |   0.0 | 57.19
Other   |            | 2.052      |            |       |  7.46

Nlocal:            605 ave         605 max         605 min
Histogram: 1 0 0 0 0 0 0 0 0 0
Nghost:             86 ave          86 max          86 min
Histogram: 1 0 0 0 0 0 0 0 0 0
Neighs:              9 ave           9 max           9 min
Histogram: 1 0 0 0 0 0 0 0 0 0

Total # of neighbors = 9
Ave neighs/atom = 0.014876033
Ave special neighs/atom = 0
Neighbor list builds = 218376
Dangerous builds = 0
Total wall time: 0:00:27
