fix fLANG all langevin 1.0 1.0 1.0 100
neigh_modify exclude molecule/intra all
fix rigidNVE linked_vesicle rigid/nve molecule
  1 rigid bodies with 5 atoms
fix NVE synapsin nve 1.0 1.0 1.0

    ##======================================##
    ## Output
    ##======================================##

thermo 1000
thermo_style custom step temp press etotal epair
thermo_modify flush yes
timestep 0.01

    ##======================================##
    ## Equilibration before output
    ##======================================##


    ##======================================##
    ## Run with output
    ##======================================##

fix enforce_2d all enforce2d
dump 2 all custom 1000 Results_eps_attr10_eps_rep1_eps_rep_weak0_range2_attr_with_repFalse_n_synapsin600_n_vesicles1/Movie_2d_eps_attr10_eps_rep1_eps_rep_weak0_range2_attr_with_repFalse_n_synapsin600_n_vesicles1.xyz id type mol x y z
run 1000000
Generated 0 of 3 mixed pair_coeff terms from geometric mixing rule
Neighbor list info ...
  update every 1 steps, delay 1 steps, check yes
  max neighbors/atom: 2000, page size: 100000
  master list distance cutoff = 11.52462
  ghost atom cutoff = 11.52462
  binsize = 5.7623102, bins = 55 55 1
  1 neighbor lists, perpetual/occasional/extra = 1 0 0
  (1) pair cosine/squared, perpetual
      attributes: half, newton on
      pair build: half/bin/newton
      stencil: half/bin/2d
      bin: standard
Per MPI rank memory allocation (min/avg/max) = 8.538 | 8.538 | 8.538 Mbytes
   Step          Temp          Press          TotEng         E_pair    
         0   0.99605013    -0.012465183    0.98864149     0            
      1000   0.98092971     0.0064086859   0.95710461    -0.016528926  
      2000   1.034599       0.0067917399   0.9976765     -0.029227147  
      3000   1.0712438      0.006784556    1.0312053     -0.032070529  
      4000   0.96076235     0.0052566456   0.90627465    -0.047341534  
      5000   0.99277317     0.0065134575   0.93821517    -0.047173736  
      6000   1.0202566      0.0062752988   0.96527451    -0.047393366  
      7000   0.95959657     0.005727049    0.89461604    -0.05784303   
      8000   0.99886686     0.006982171    0.92772215    -0.06371512   
      9000   0.97010999     0.0059725538   0.89968408    -0.063210209  
     10000   0.94424233     0.0054171205   0.85913834    -0.078080695  
     11000   1.0282203      0.0060277273   0.92346096    -0.097111437  
     12000   0.99682252     0.0056959919   0.8913468     -0.09806134   
     13000   0.98637391     0.0061230878   0.8827421     -0.096295147  
     14000   0.96148808     0.0059737091   0.85755972    -0.096776802  
     15000   0.97873302     0.0064045777   0.86343209    -0.10802109   
     16000   0.9338         0.0050856077   0.81687758    -0.10997679   
     17000   1.078489       0.0071824384   0.94255805    -0.12790915   
     18000   0.90693892     0.0057758534   0.77058928    -0.12960381   
     19000   0.94703041     0.0048106085   0.81251569    -0.12747069   
     20000   1.0474639      0.006234877    0.91439744    -0.12527545   
     21000   0.93277134     0.0050736153   0.7811251     -0.14470827   
     22000   0.94579556     0.0059415647   0.80296621    -0.13579451   
     23000   0.98963882     0.0064464644   0.84524579    -0.13703208   
     24000   0.95073781     0.0050690383   0.80738186    -0.13628435   
     25000   1.0349667      0.0059817207   0.88943354    -0.13783509   
     26000   0.93370391     0.0060787245   0.80173454    -0.12502447   
     27000   1.0331702      0.0073737071   0.88611479    -0.13937067   
     28000   1.0020996      0.0044532796   0.8595179     -0.13512803   
     29000   1.0075671      0.0067613459   0.87015094    -0.12992184   
     30000   0.99683746     0.0061319316   0.84842885    -0.14099412   
     31000   1.0025936      0.0050340677   0.86022581    -0.13491045   
     32000   1.0632174      0.0064626672   0.91125329    -0.14405584   
     33000   0.98418121     0.0063663416   0.83734175    -0.1395191    
     34000   0.99042114     0.0065907186   0.8447085     -0.13834587   
     35000   1.0409411      0.0068924737   0.87032717    -0.16287138   
     36000   0.95675746     0.0069239415   0.78600659    -0.16363449   
     37000   1.0098006      0.0062650135   0.8271151     -0.17517456   
     38000   1.0046537      0.0069998816   0.8210403     -0.17614077   
     39000   0.99945061     0.0063104317   0.81887667    -0.17314001   
     40000   1.0287965      0.0061764168   0.84991093    -0.17123341   
     41000   1.0534219      0.0050569592   0.86038391    -0.18520267   
     42000   0.92171056     0.0051310505   0.71103519    -0.20381967   
     43000   0.96664527     0.0057735003   0.76591938    -0.19353596   
     44000   1.0583631      0.0064250696   0.8457897     -0.20470131   
     45000   1.0468084      0.0061269481   0.8394898     -0.19953243   
     46000   0.95513811     0.0056285697   0.72575722    -0.22227655   
     47000   0.98349843     0.0058404066   0.76370545    -0.21247771   
     48000   0.96998735     0.0050532177   0.75066206    -0.21211051   
     49000   1.0400455      0.00636689     0.81931529    -0.21299437   
     50000   0.93244011     0.0058922525   0.72559112    -0.19991349   
     51000   1.0273841      0.0066326712   0.82851006    -0.19123235   
     52000   0.913057       0.00522917     0.69179537    -0.2144703    
     53000   1.035483       0.0057725728   0.80403473    -0.22374632   
     54000   1.0069673      0.0061514581   0.77868666    -0.2207908    
     55000   1.0010765      0.0060467936   0.78063764    -0.21299282   
     56000   0.93558857     0.0055730769   0.70981752    -0.21881212   
     57000   1.0236243      0.00625434     0.80392588    -0.21208468   
     58000   0.94603621     0.0052955974   0.71412652    -0.22487306   
     59000   1.0313354      0.0053195549   0.81239321    -0.2112711    
     60000   0.95175975     0.0056953214   0.73824754    -0.20643301   
     61000   0.99851597     0.0060870639   0.77565794    -0.21543105   
     62000   0.97489452     0.0066052559   0.74909225    -0.21855098   
     63000   0.9426654      0.0063338737   0.70147844    -0.2341754    
     64000   1.0394368      0.0059112102   0.79585429    -0.23585113   
     65000   1.0166357      0.0066947037   0.7748493     -0.23422462   
     66000   0.96533801     0.0062977591   0.72851686    -0.22964094   
     67000   1.0373603      0.0060305314   0.81222979    -0.21741458   
     68000   0.95836627     0.0061440512   0.72117451    -0.23006342   
     69000   0.98360182     0.0055931428   0.7548653     -0.22142047   
     70000   0.99667723     0.0061539143   0.75702347    -0.23224046   
     71000   0.98025676     0.0065395469   0.74325568    -0.22970991   
     72000   1.0416586      0.0064098674   0.80790802    -0.22600273   
     73000   1.0493542      0.0061513572   0.80777162    -0.2337775    
     74000   0.99052279     0.0060792518   0.76461573    -0.21853953   
     75000   0.93730771     0.0062717396   0.69662853    -0.23370747   
     76000   1.0134485      0.0063881484   0.76929666    -0.23661382   
     77000   0.95543679     0.0057504306   0.70194085    -0.24638938   
     78000   1.0056384      0.0063802724   0.75964839    -0.23851006   
     79000   0.97169122     0.007033897    0.71631329    -0.24815047   
     80000   1.0315798      0.0059802201   0.78114348    -0.24276346   
     81000   0.97570734     0.0061456645   0.72708138    -0.24136864   
     82000   0.99203345     0.0059681506   0.74782246    -0.23683223   
     83000   0.95511597     0.0057710924   0.72022159    -0.22779021   
     84000   1.0452057      0.0056804465   0.78656519    -0.2508662    
     85000   0.97845135     0.0057604615   0.71509103    -0.25608258   
     86000   0.91891109     0.0050461012   0.65786621    -0.25421      
     87000   0.97620086     0.0058407137   0.70861468    -0.26032518   
     88000   1.0099886      0.0064396486   0.7471768     -0.25529946   
     89000   1.028239       0.0057505197   0.76061646    -0.25997448   
     90000   0.9877947      0.005756462    0.73650877    -0.2439387    
     91000   1.0395272      0.006831316    0.75645276    -0.27534242   
     92000   1.0320871      0.0055906011   0.75216387    -0.27224652   
     93000   0.9875642      0.0060932307   0.70313197    -0.27708672   
     94000   1.0096377      0.0059825413   0.7253265     -0.27680149   
     95000   1.0284624      0.0061307023   0.75305183    -0.26776089   
     96000   0.962471       0.0063235578   0.68503572    -0.27027641   
     97000   1.0062011      0.0056509308   0.71854993    -0.280167     
     98000   1.0074444      0.0058616583   0.73123742    -0.26871364   
     99000   1.015698       0.0056011156   0.72963882    -0.27850438   
    100000   1.0345292      0.0057719195   0.73745991    -0.28937448   
    101000   1.035369       0.0059352966   0.75362009    -0.27404778   
    102000   1.0560831      0.0060000012   0.75506852    -0.29315944   
    103000   0.99541393     0.0048314137   0.67944253    -0.30856749   
    104000   0.96296292     0.0058777794   0.64719269    -0.3086077    
    105000   1.0283169      0.006166449    0.7113858     -0.30928251   
    106000   1.0287958      0.006759546    0.7234492     -0.29769437   
    107000   0.92446583     0.005419454    0.61216231    -0.30542733   
    108000   0.9354031      0.0051481526   0.63057743    -0.29786813   
    109000   0.98255454     0.0059804789   0.67811525    -0.29713104   
    110000   1.0180068      0.0048715103   0.70681975    -0.30361513   
    111000   0.98455721     0.0059506085   0.68034789    -0.29688617   
    112000   0.98501373     0.0055181615   0.68208546    -0.29560172   
    113000   1.0175843      0.0066396764   0.71599207    -0.29402344   
    114000   0.99818722     0.0066166921   0.68463044    -0.30613225   
    115000   1.0386512      0.007152183    0.74442321    -0.28650247   
    116000   1.0332632      0.0068563918   0.71680929    -0.30876844   
    117000   1.0123518      0.0061658453   0.70326761    -0.30155432   
    118000   0.99496612     0.0062999312   0.67948941    -0.30807614   
    119000   0.98709839     0.0069266769   0.67009833    -0.309658     
    120000   1.0161744      0.0061223014   0.68171275    -0.32690334   
    121000   1.0063954      0.0064097197   0.66892571    -0.32998413   
    122000   1.0655471      0.0063880476   0.72491897    -0.33270256   
    123000   1.0275059      0.0056140988   0.68814286    -0.3317204    
    124000   0.97861702     0.0065915354   0.63740739    -0.33393066   
    125000   0.98449364     0.0057587227   0.62183634    -0.35533462   
    126000   1.047904       0.0059103665   0.68852015    -0.3515895    
    127000   1.0096084      0.0060164968   0.6489832     -0.35311576   
    128000   0.98469318     0.0057738916   0.63072385    -0.34664517   
    129000   0.97918157     0.004503849    0.62068814    -0.35121026   
    130000   0.99487303     0.005540597    0.63598882    -0.35148433   
    131000   1.0785867      0.0067434561   0.72718718    -0.343377     
    132000   0.98225738     0.0058790759   0.62382831    -0.35112302   
    133000   0.99302394     0.0066272611   0.6361192     -0.34951861   
    134000   1.033715       0.0058364312   0.66745562    -0.35857055   
    135000   1.0999251      0.0071344066   0.73224964    -0.35949421   
    136000   0.9802788      0.0059801174   0.61313925    -0.35984822   
    137000   1.0243904      0.0053562648   0.65893927    -0.35783169   
    138000   0.98345379     0.0069288251   0.612644      -0.36349484   
    139000   0.98546483     0.0047413787   0.62018784    -0.35794709   
    140000   1.030597       0.0061490446   0.67406549    -0.34886593   
    141000   0.98293385     0.0059351448   0.59539066    -0.38023211   
    142000   1.0178763      0.0058206342   0.63048716    -0.37981815   
    143000   1.0472783      0.0065947033   0.66558896    -0.37389963   
    144000   1.0051919      0.0062335713   0.63013281    -0.36758244   
    145000   0.99926997     0.0049902932   0.61863137    -0.37320601   
    146000   0.94455558     0.0061763345   0.55107001    -0.38645995   
    147000   0.974356       0.005595248    0.57475844    -0.39235028   
    148000   0.94985945     0.0048928071   0.55031291    -0.39248147   
    149000   0.98862386     0.0062425337   0.57530866    -0.4059618    
    150000   0.94328961     0.004306566    0.56454919    -0.37172422   
    151000   1.0094418      0.0060003104   0.61904431    -0.38288928   
    152000   1.0752176      0.0063524475   0.69976535    -0.3674548    
    153000   0.94537698     0.0055296668   0.57118465    -0.3671606    
    154000   1.0156785      0.0055958743   0.60948289    -0.39864098   
    155000   0.94575027     0.0044537564   0.54835244    -0.39036333   
    156000   1.0346571      0.0064560174   0.61507487    -0.41188647   
    157000   1.0241127      0.0061092212   0.61284176    -0.40365362   
    158000   1.069249       0.0059723687   0.65307464    -0.40822131   
    159000   0.9212222      0.0044945763   0.49283188    -0.42153826   
    160000   1.03274        0.0068767589   0.61046994    -0.41458856   
    161000   1.0127055      0.0061295775   0.57604453    -0.42912846   
    162000   0.96354567     0.0048781075   0.52932848    -0.42705032   
    163000   0.94892741     0.0059596892   0.51684399    -0.42502529   
    164000   1.0157232      0.0048121294   0.58769527    -0.42047301   
    165000   0.96941777     0.005688651    0.52744156    -0.43476566   
    166000   0.96278337     0.0054858181   0.51596104    -0.43966113   
    167000   0.98546867     0.0056713243   0.53897751    -0.43916122   
    168000   1.0763968      0.0071216628   0.64540797    -0.42298255   
    169000   0.97187405     0.004640202    0.54743039    -0.41721484   
    170000   0.97413796     0.0059635462   0.52655336    -0.44033895   
    171000   0.97577687     0.0060331385   0.54358666    -0.42493236   
    172000   1.0432561      0.0059148671   0.60832075    -0.42717556   
    173000   1.010107       0.0057154426   0.56819932    -0.43439452   
    174000   1.036262       0.0050977583   0.59511109    -0.43344313   
    175000   0.93917665     0.0059192457   0.48823384    -0.4439572    
    176000   1.0173384      0.0063899603   0.570684      -0.43908738   
    177000   1.0447473      0.0064459948   0.60067953    -0.43629691   
    178000   0.98281698     0.0060172805   0.51508184    -0.46042493   
    179000   1.035884       0.0051668976   0.59459186    -0.43358727   
    180000   0.96794916     0.0059704101   0.52721672    -0.43353282   
    181000   1.0481559      0.0059601741   0.58795205    -0.45240761   
    182000   1.0831213      0.0063118661   0.65132113    -0.42374394   
    183000   1.0113931      0.0053624501   0.56997718    -0.43389317   
    184000   1.0419662      0.0066962343   0.59363237    -0.4405837    
    185000   1.0400017      0.0060040623   0.59231946    -0.43994672   
    186000   0.98247999     0.0060517366   0.54389529    -0.43127699   
    187000   0.99936718     0.004797135    0.53740271    -0.45453116   
    188000   1.0685567      0.0057294941   0.60429049    -0.45631826   
    189000   1.0056006      0.0064541128   0.56218453    -0.4359364    
    190000   1.004909       0.0050605861   0.56311684    -0.4343176    
    191000   1.0144708      0.0057205789   0.53700057    -0.46992458   
    192000   1.0439815      0.0060631358   0.56304285    -0.4731735    
    193000   1.0142909      0.0063342852   0.5319832     -0.47476341   
    194000   0.99052364     0.0062845394   0.51067105    -0.47248507   
    195000   0.99444079     0.0069482749   0.53227919    -0.45476494   
    196000   1.0201899      0.0063850663   0.53199394    -0.48060782   
    197000   1.0438796      0.005228844    0.55633551    -0.47977965   
    198000   1.0633077      0.0069423794   0.56043269    -0.49496607   
    199000   1.0392766      0.0051918373   0.57125084    -0.46029563   
    200000   0.94084664     0.0059088174   0.44702945    -0.48681915   
    201000   1.0179361      0.006223183    0.51978446    -0.49058017   
    202000   0.98905473     0.0047753252   0.50083584    -0.48086228   
    203000   1.0313565      0.0050537555   0.5239677     -0.49971751   
    204000   1.0289384      0.0052042873   0.53237623    -0.48890888   
    205000   1.0299421      0.0079262039   0.53428263    -0.48799878   
    206000   0.91992519     0.0056246702   0.42985189    -0.48323088   
    207000   0.99037371     0.0058291541   0.48679793    -0.49620937   
    208000   1.0015985      0.0054077586   0.50359674    -0.49055186   
    209000   1.0429694      0.0047353286   0.57881958    -0.45639217   
    210000   1.0065433      0.0049438083   0.50444593    -0.49461068   
    211000   0.97401923     0.0054617373   0.47854873    -0.48822573   
    212000   0.99417985     0.0048248871   0.50200075    -0.48478437   
    213000   0.99551767     0.0058250804   0.50871481    -0.47939818   
    214000   1.0059803      0.0060351725   0.52153783    -0.47695993   
    215000   0.99163593     0.0060406768   0.49345224    -0.49080788   
    216000   1.0161942      0.0058836038   0.52384771    -0.48478805   
    217000   0.97273424     0.0065366986   0.47558246    -0.48991656   
    218000   1.0340416      0.0059720852   0.53162894    -0.49472149   
    219000   1.0951005      0.0074605783   0.58550528    -0.50144986   
    220000   0.92664522     0.0062208769   0.4107431     -0.50900972   
    221000   1.0012765      0.0061062717   0.48155094    -0.51227802   
    222000   1.0019442      0.0044983217   0.49229696    -0.50219479   
    223000   0.97641282     0.0051212307   0.45482796    -0.51432229   
    224000   0.98140017     0.0049287762   0.46526417    -0.50883633   
    225000   1.0255423      0.0052284594   0.51180991    -0.5061044    
    226000   1.0370052      0.0068200924   0.52234149    -0.5069504    
    227000   0.94248251     0.0057493619   0.4204702     -0.51500211   
    228000   0.97528908     0.0068798198   0.4740956     -0.49393926   
    229000   1.0054509      0.0056992503   0.50080054    -0.49717176   
    230000   1.0504696      0.0075151827   0.54238891    -0.50026725   
    231000   1.0171895      0.0048290656   0.52210909    -0.48751458   
    232000   1.0103977      0.0052245398   0.45334865    -0.54953374   
    233000   1.0336913      0.0067776257   0.47485853    -0.55114412   
    234000   1.0292866      0.0053193851   0.46293804    -0.55869275   
    235000   1.0335071      0.0068531874   0.47023931    -0.5555805    
    236000   1.0547958      0.0073600625   0.50081768    -0.54613252   
    237000   1.0088985      0.0055794578   0.4332462     -0.5681481    
    238000   1.0039854      0.0065471171   0.45729523    -0.53922253   
    239000   0.99223039     0.0054773258   0.4452324     -0.53961777   
    240000   0.97261324     0.00601843     0.41422219    -0.55115674   
    241000   0.97352526     0.0056577154   0.44389828    -0.52238588   
    242000   0.9414063      0.0053966334   0.39109802    -0.54330608   
    243000   1.0387616      0.0052873663   0.4612424     -0.56979284   
    244000   0.97047725     0.0049686211   0.39119277    -0.57206605   
    245000   0.97101415     0.0043476125   0.39977003    -0.5640217    
    246000   1.0341178      0.0068601246   0.46492389    -0.5615021    
    247000   1.0049195      0.005980877    0.4591789     -0.53826596   
    248000   0.96413187     0.0037524619   0.39173988    -0.56522077   
    249000   0.96177351     0.0057555603   0.3723648     -0.58225502   
    250000   1.0167701      0.0061842456   0.45258697    -0.55662034   
    251000   0.99466311     0.0059819654   0.41249698    -0.5747678    
    252000   0.94457232     0.0050537379   0.37780795    -0.55973863   
    253000   0.99860496     0.0053706343   0.44847879    -0.54269853   
    254000   0.98918592     0.0051748364   0.43623334    -0.545595     
    255000   1.0707869      0.0054256915   0.4907552     -0.57206714   
    256000   0.98903683     0.0056612308   0.44615178    -0.53552858   
    257000   0.96917156     0.0055610152   0.40570898    -0.55625386   
    258000   1.0005155      0.0053162197   0.44331458    -0.5497591    
    259000   1.0459291      0.0056845262   0.49316307    -0.54498637   
    260000   0.93636738     0.0049282084   0.37385598    -0.55554668   
    261000   1.0450443      0.0070779882   0.46744841    -0.56982287   
    262000   0.96197388     0.0051784545   0.39358539    -0.56123331   
    263000   1.0288149      0.0060567238   0.49044247    -0.53072013   
    264000   0.96131889     0.0056340456   0.38934535    -0.56482324   
    265000   0.98844294     0.0069691643   0.42624992    -0.55484096   
    266000   1.0082331      0.0061191595   0.43568457    -0.56504925   
    267000   0.98942907     0.0056762885   0.43361336    -0.54845632   
    268000   1.0392859      0.0062746701   0.45083906    -0.58071659   
    269000   1.0598406      0.0049837763   0.48650363    -0.5654539    
    270000   1.0669196      0.0059127594   0.49263618    -0.56634761   
    271000   1.0509634      0.0070381145   0.45902437    -0.58412192   
    272000   0.99330344     0.0061217282   0.38999838    -0.59591685   
    273000   1.0444881      0.0057614511   0.42553919    -0.61117994   
    274000   1.0002096      0.0064377306   0.39490113    -0.59786894   
    275000   0.90039182     0.0047713618   0.27769515    -0.61599954   
    276000   1.0200345      0.0062940898   0.41313845    -0.59930904   
    277000   1.0637603      0.0058905166   0.43365721    -0.62219082   
    278000   0.96383282     0.0062305469   0.35492338    -0.60174044   
    279000   0.9795306      0.0064727718   0.36885911    -0.60338572   
    280000   1.1274985      0.0064315826   0.50919868    -0.60991348   
    281000   1.0325438      0.0045908638   0.41044648    -0.61441722   
    282000   1.0528253      0.0071474954   0.41306464    -0.63192976   
    283000   0.97900124     0.0050277235   0.31702743    -0.65469198   
    284000   0.91266062     0.0046209891   0.24187316    -0.66399907   
    285000   0.97368322     0.0058305451   0.32901473    -0.63742621   
    286000   0.91952458     0.0059336228   0.28088337    -0.63180177   
    287000   1.0123021      0.0057665124   0.34878768    -0.6559849    
    288000   0.92689358     0.0063450514   0.26629507    -0.65370427   
    289000   0.98983943     0.0060989228   0.33557397    -0.64690302   
    290000   1.0359924      0.0061542768   0.37719036    -0.65109636   
    291000   0.98408922     0.006341598    0.33963937    -0.63713018   
    292000   1.0578525      0.0054096397   0.40659061    -0.64339356   
    293000   0.97286005     0.0064611506   0.35481624    -0.61080766   
    294000   1.0088004      0.0065979887   0.35930743    -0.64198946   
    295000   0.97450534     0.0056097308   0.33422108    -0.63303588   
    296000   0.96339346     0.0051408844   0.31639998    -0.63982774   
    297000   0.95959891     0.0045990574   0.3103504     -0.642111     
    298000   1.0802481      0.0062582452   0.42606573    -0.64614749   
    299000   1.0570154      0.0051111979   0.40187787    -0.6472754    
    300000   0.97070972     0.0042474798   0.32249217    -0.6409974    
    301000   1.0558276      0.0055869032   0.39625607    -0.65171832   
    302000   1.012031       0.0060938645   0.32719806    -0.6773054    
    303000   0.92009233     0.0050957174   0.25129962    -0.66194905   
    304000   0.9666057      0.0055734374   0.33189651    -0.62751956   
    305000   0.95256947     0.0046057064   0.31181203    -0.63367221   
    306000   0.90655633     0.0043004345   0.243809      -0.65600435   
    307000   0.98655043     0.0065664892   0.33277784    -0.64643461   
    308000   0.99721899     0.0052819214   0.33544993    -0.65435173   
    309000   1.0058359      0.0067562305   0.34271167    -0.65564282   
    310000   0.98986065     0.0060036951   0.33885626    -0.64364179   
    311000   0.98715752     0.005559758    0.36068487    -0.61913015   
    312000   1.0032622      0.0062071067   0.33893922    -0.65686071   
    313000   0.96313318     0.0050557323   0.30202091    -0.65394846   
    314000   1.1094835      0.0066032423   0.45914627    -0.64208488   
    315000   1.0583538      0.0069622323   0.40580201    -0.64467976   
    316000   1.0432106      0.0063941904   0.37754831    -0.65790283   
    317000   0.99104591     0.0051606537   0.34899772    -0.63467677   
    318000   0.99364548     0.005289572    0.33684461    -0.64941013   
    319000   0.97449434     0.0043277179   0.32940762    -0.63783842   
    320000   0.9840139      0.0052850055   0.3142881     -0.66240669   
    321000   1.0554071      0.0057169078   0.35084679    -0.69671019   
    322000   0.99174527     0.0058540083   0.28334394    -0.70102471   
    323000   0.97368582     0.0055828085   0.32407177    -0.64237176   
    324000   1.00285        0.0054393373   0.3078508     -0.68753995   
    325000   0.96665669     0.0058438908   0.26820356    -0.69126312   
    326000   1.0699119      0.0065240567   0.36207929    -0.6998746    
    327000   0.98286124     0.0060671023   0.28687362    -0.68867709   
    328000   0.99964251     0.0066395684   0.3207326     -0.67147455   
    329000   1.0341717      0.0049250719   0.33914622    -0.68733329   
    330000   1.0128663      0.004943433    0.34573054    -0.65960208   
    331000   1.0199065      0.0046787693   0.32130197    -0.69101842   
    332000   0.98895916     0.0061377228   0.29299269    -0.68861057   
    333000   1.1014383      0.0053245183   0.41666307    -0.67658272   
    334000   1.0503003      0.0062051032   0.38844937    -0.65403876   
    335000   0.96233849     0.0065706989   0.26790581    -0.68727479   
    336000   0.9290417      0.0048395262   0.24243632    -0.67969515   
    337000   0.92333631     0.0052438284   0.25673299    -0.65973552   
    338000   1.006143       0.0050734455   0.33440431    -0.66425499   
    339000   1.0648826      0.0059593619   0.38732719    -0.66963479   
    340000   1.0376975      0.0059955287   0.37453224    -0.65544683   
    341000   1.0430325      0.0056408472   0.38038635    -0.65488811   
    342000   0.95546475     0.0046796108   0.27455477    -0.67380323   
    343000   1.0115069      0.0061854539   0.34498843    -0.65899487   
    344000   1.0142299      0.006458498    0.31099476    -0.69569131   
    345000   0.9785889      0.0057257325   0.27866389    -0.69264625   
    346000   1.1079022      0.005569698    0.37835048    -0.72131108   
    347000   0.93380648     0.0039201534   0.24252987    -0.68433094   
    348000   1.0177625      0.0069213171   0.28915059    -0.72104179   
    349000   0.97424018     0.0055159632   0.26845477    -0.698539     
    350000   1.0231757      0.0068602199   0.34009486    -0.67547042   
    351000   1.006319       0.0063108135   0.33274295    -0.66609104   
    352000   0.95846312     0.0053735373   0.23311802    -0.71821604   
    353000   0.99259941     0.0061765983   0.28009199    -0.70512445   
    354000   1.0711036      0.0073313312   0.36033224    -0.70280446   
    355000   1.0342849      0.0061559794   0.29553004    -0.73106182   
    356000   1.0212852      0.0054610711   0.28920722    -0.72448168   
    357000   0.95499041     0.0049846331   0.24431232    -0.70357486   
    358000   0.97854662     0.0052521211   0.26768542    -0.70358276   
    359000   0.97980726     0.0054331055   0.26092559    -0.71159384   
    360000   0.98160095     0.006390049    0.28352835    -0.69077144   
    361000   0.96820598     0.0051779413   0.25473378    -0.70627067   
    362000   0.9706063      0.0056408257   0.25591737    -0.70746954   
    363000   0.98167962     0.0053204337   0.25439902    -0.71997885   
    364000   0.95217952     0.0061080021   0.20087827    -0.74421893   
    365000   1.0512905      0.0057382068   0.32324684    -0.72022412   
    366000   0.98590847     0.0054693955   0.26979755    -0.70877771   
    367000   1.0304082      0.0059667294   0.31622405    -0.70651993   
    368000   0.96714473     0.0045303042   0.24065426    -0.71929683   
    369000   1.0382895      0.0065327925   0.32938616    -0.70118049   
    370000   1.0435602      0.0055251703   0.34462277    -0.69117544   
    371000   1.0107362      0.0060858378   0.28942187    -0.71379645   
    372000   0.96481248     0.0051990169   0.24902517    -0.70861102   
    373000   0.99145204     0.0066105487   0.28813668    -0.69594093   
    374000   0.90821602     0.00630913     0.18557475    -0.71588595   
    375000   0.96909085     0.0052798057   0.25780589    -0.70407685   
    376000   0.98963644     0.00484529     0.2938694     -0.68840611   
    377000   0.99520803     0.0065514575   0.27264688    -0.71515877   
    378000   1.0372487      0.0050343956   0.32497506    -0.70455855   
    379000   0.99634136     0.0052845807   0.31340679    -0.67552377   
    380000   1.0294585      0.004313575    0.32699147    -0.6948099    
    381000   0.97772774     0.005950139    0.26839413    -0.70206126   
    382000   1.0571754      0.0071966719   0.36963393    -0.67967815   
    383000   0.95542848     0.0051082823   0.25800692    -0.69031506   
    384000   0.98374381     0.0056821278   0.25864022    -0.71778649   
    385000   1.041866       0.0060938699   0.33438096    -0.69973558   
    386000   1.0025152      0.006715821    0.27628156    -0.71877691   
    387000   0.97082178     0.0049592866   0.26100657    -0.70259422   
    388000   1.0127912      0.0071451354   0.27550342    -0.72975462   
    389000   1.0943923      0.0067853192   0.34193934    -0.74431284   
    390000   0.94936211     0.0041782234   0.19820404    -0.7440967    
    391000   0.99365544     0.0044858887   0.25519929    -0.73106533   
    392000   0.95642638     0.0043796996   0.197178      -0.75213446   
    393000   1.0202683      0.0062778027   0.25520196    -0.75747759   
    394000   0.91700097     0.0046411223   0.1579779     -0.75220241   
    395000   1.0023975      0.0059201339   0.22871163    -0.76623      
    396000   1.0647679      0.0059424635   0.34618532    -0.71066285   
    397000   0.95875383     0.0050063171   0.23299473    -0.71862787   
    398000   1.0078059      0.0064691515   0.29442676    -0.70588302   
    399000   1.0354435      0.0056988796   0.29386148    -0.73388034   
    400000   1.0178216      0.0046130473   0.29186044    -0.71839057   
    401000   1.0580888      0.0062555916   0.31716668    -0.733052     
    402000   1.042062       0.0057277664   0.30424466    -0.7300665    
    403000   1.0226369      0.004793297    0.24386912    -0.77116135   
    404000   0.91768765     0.0042220726   0.18284066    -0.72802122   
    405000   0.97772836     0.0053874283   0.21863114    -0.75182486   
    406000   0.95575654     0.0055360373   0.20427745    -0.74437016   
    407000   0.98471661     0.004955393    0.2186827     -0.75870957   
    408000   0.93693182     0.0061597817   0.18739359    -0.74256932   
    409000   1.0759559      0.0058711881   0.2964916     -0.77146136   
    410000   1.0071383      0.0055240214   0.23631161    -0.76333559   
    411000   1.0514992      0.0057235305   0.25803617    -0.785642     
    412000   1.0270781      0.0047887108   0.28538811    -0.73405061   
    413000   0.96841299     0.0050714832   0.22281007    -0.73839984   
    414000   1.0234127      0.0048008499   0.24155197    -0.77424854   
    415000   0.97440716     0.0057590801   0.19571996    -0.77143955   
    416000   0.94678428     0.0059463425   0.12771273    -0.81202935   
    417000   1.0090324      0.0069497624   0.21854025    -0.78298693   
    418000   1.0145854      0.0052284229   0.23910827    -0.76793061   
    419000   1.0077635      0.005043589    0.18391926    -0.81634852   
    420000   1.0201802      0.0054684089   0.21888633    -0.79370574   
    421000   1.0069216      0.0036193604   0.19678566    -0.80264647   
    422000   1.0284413      0.0058098692   0.23770479    -0.78308691   
    423000   1.0488816      0.005580584    0.24284619    -0.79823386   
    424000   1.0425197      0.0067025514   0.23738893    -0.79737651   
    425000   0.9918812      0.0061758866   0.20210087    -0.7824027    
    426000   0.99727482     0.0060046208   0.18211009    -0.80774699   
    427000   1.0333166      0.0048704965   0.19685897    -0.8287718    
    428000   0.98415111     0.0063842163   0.15891621    -0.81791477   
    429000   0.98442955     0.004472635    0.18947209    -0.78763526   
    430000   0.97172018     0.0053238944   0.16853499    -0.79595752   
    431000   0.97721621     0.0056567503   0.14703595    -0.82291171   
    432000   1.0411199      0.0065666079   0.25359886    -0.77977714   
    433000   1.0407344      0.0056994326   0.20670737    -0.82628605   
    434000   1.0316044      0.0059835195   0.20504453    -0.81888679   
    435000   1.0474872      0.0049226232   0.17740454    -0.86229144   
    436000   0.98577096     0.0052385253   0.12470358    -0.8537352    
    437000   0.9454025      0.0049854667   0.076686532   -0.86168404   
    438000   0.97211818     0.0058413726   0.12132048    -0.84356706   
    439000   0.99504624     0.0044880076   0.14046422    -0.84718085   
    440000   0.95075334     0.0048249768   0.11010504    -0.83357658   
    441000   0.96867232     0.0054631009   0.14168864    -0.81977868   
    442000   1.069895       0.0049610689   0.2618657     -0.80007142   
    443000   1.0228932      0.0066163301   0.16075082    -0.8545341    
    444000   0.98994362     0.0055383656   0.13713427    -0.84544613   
    445000   1.1179079      0.0064476267   0.28674761    -0.82284531   
    446000   0.96923989     0.0053180484   0.11038687    -0.85164379   
    447000   0.97351993     0.0057512926   0.13112655    -0.83515232   
    448000   0.99742088     0.0042633969   0.13324533    -0.85675672   
    449000   1.0398923      0.0051030207   0.19283086    -0.83932675   
    450000   0.97091326     0.0049214229   0.13727754    -0.82641404   
    451000   0.99536831     0.0065491099   0.1436079     -0.84435684   
    452000   0.94479816     0.005736488    0.10524756    -0.83252317   
    453000   0.96814865     0.0044990213   0.13376361    -0.82718394   
    454000   1.0176347      0.004662355    0.19883851    -0.81122699   
    455000   0.99812261     0.0060217115   0.17570784    -0.81499071   
    456000   0.9442628      0.0046031141   0.11466204    -0.82257731   
    457000   1.0307895      0.0046184495   0.20622514    -0.81689731   
    458000   0.94624817     0.006168174    0.12307169    -0.81613827   
    459000   1.0050486      0.0055790444   0.1589382     -0.83863487   
    460000   1.0301992      0.0065670684   0.21544776    -0.80708884   
    461000   1.0729832      0.0063603783   0.23923133    -0.82577098   
    462000   1.0912912      0.0069090794   0.2542307     -0.82894346   
    463000   1.0304711      0.0045317986   0.24186901    -0.78093743   
    464000   1.0383033      0.0059099522   0.2103699     -0.82021051   
    465000   1.022801       0.0075327541   0.19669852    -0.8184949    
    466000   0.91552335     0.0059603616   0.089756798   -0.81895688   
    467000   0.92734758     0.0049919414   0.11477288    -0.80567707   
    468000   1.0216136      0.0052412236   0.25171285    -0.76230196   
    469000   0.99570373     0.0047900137   0.19581419    -0.79248348   
    470000   0.99515006     0.0046433421   0.19178801    -0.7959601    
    471000   0.99739192     0.0059760253   0.192888      -0.79708531   
    472000   1.038825       0.0063946947   0.23222141    -0.79887683   
    473000   1.0037077      0.0062981714   0.16115973    -0.8350824    
    474000   1.0657854      0.0049974134   0.23070095    -0.82715715   
    475000   1.0333455      0.0060002314   0.22672549    -0.798934     
    476000   1.0315415      0.0055279934   0.19177222    -0.83209669   
    477000   1.0100212      0.0051583193   0.15161987    -0.85088882   
    478000   1.0316573      0.0067014971   0.1756227     -0.84836112   
    479000   0.91958236     0.0048842254   0.089237277   -0.82350521   
    480000   0.99414614     0.0045334573   0.16743176    -0.8193199    
    481000   0.9885734      0.0052321817   0.11294424    -0.86827614   
    482000   1.0314506      0.0055251278   0.1949226     -0.82885603   
    483000   1.0036303      0.0052252101   0.13017753    -0.86598775   
    484000   0.90839668     0.0042641135   0.04086317    -0.86077684   
    485000   1.0378236      0.0054930344   0.14663717    -0.8834671    
    486000   0.94233349     0.0037201964   0.078820469   -0.85650393   
    487000   0.91801126     0.0046395589   0.058975326   -0.85220775   
    488000   0.9707295      0.0044745381   0.08601988    -0.87748932   
    489000   0.97830798     0.0045002934   0.12830868    -0.84272263   
    490000   0.95527631     0.0052224412   0.13094421    -0.81722674   
    491000   0.99559853     0.0049022989   0.14304618    -0.84514707   
    492000   0.97128471     0.0051366095   0.13032011    -0.83374017   
    493000   1.023829       0.0054865474   0.163847      -0.85236673   
    494000   0.97372753     0.004985885    0.094354952   -0.87212998   
    495000   0.99706691     0.005781234    0.14112859    -0.84852212   
    496000   0.98714839     0.0053485334   0.1295447     -0.85026127   
    497000   0.9436853      0.0054067274   0.048721388   -0.88794477   
    498000   1.0461207      0.0055387595   0.17812677    -0.86021286   
    499000   0.95572289     0.0060609146   0.079936414   -0.86867779   
    500000   1.0452215      0.0054318198   0.17616759    -0.86127957   
    501000   1.0534488      0.0047941061   0.178108      -0.86750525   
    502000   0.99838452     0.0048085025   0.12005908    -0.87089944   
    503000   0.98375989     0.0060769991   0.10205574    -0.87438694   
    504000   0.93910078     0.0048050928   0.081479718   -0.85063601   
    505000   0.9646051      0.0044066755   0.089602317   -0.86782803   
    506000   0.93387445     0.0043833296   0.039563674   -0.8873646    
    507000   1.0320497      0.0056389693   0.10924968    -0.91512362   
    508000   0.9572771      0.0066500152   0.036315395   -0.91384147   
    509000   0.96474044     0.0051748714   0.052088666   -0.90547602   
    510000   1.0234831      0.0045079098   0.11930221    -0.89656826   
    511000   1.0442139      0.0067229866   0.12969103    -0.90675598   
    512000   0.98133695     0.006754909    0.082953101   -0.89108465   
    513000   0.9724987      0.005470933    0.044777864   -0.92048737   
    514000   0.98625815     0.0055859909   0.080680826   -0.89824152   
    515000   1.1024356      0.0070422428   0.16564417    -0.92859153   
    516000   1.0565724      0.006614762    0.13173043    -0.91698315   
    517000   1.034159       0.0057656654   0.10126475    -0.92520214   
    518000   0.94432916     0.0043374454  -0.0093638633  -0.94666909   
    519000   1.0668065      0.0041606997   0.1416212     -0.91725038   
    520000   0.97650684     0.0054870568   0.062284696   -0.90695887   
    521000   0.94373945     0.0044291367   0.03524735    -0.90147255   
    522000   1.0207637      0.0069427423   0.10455114    -0.90862012   
    523000   0.9878971      0.005113022    0.044564371   -0.93598473   
    524000   0.98923729     0.0058486593   0.049777237   -0.93210209   
    525000   1.0067498      0.0047262156   0.079573182   -0.91968835   
    526000   0.98665256     0.004344233    0.079172516   -0.90014131   
    527000   0.96874529     0.005197863    0.048817345   -0.9127224    
    528000   0.97234443     0.0056269051   0.10011004    -0.86500207   
    529000   0.99151701     0.0063995959   0.076961388   -0.90718071   
    530000   1.0214446      0.006123672    0.11494319    -0.89890392   
    531000   1.0531838      0.0053813046   0.14762785    -0.89772231   
    532000   1.0122076      0.005736925    0.11697461    -0.88770415   
    533000   0.94857144     0.0050705026   0.06036966    -0.88114629   
    534000   0.92379598     0.0044449958   0.035792402   -0.88113237   
    535000   0.97215321     0.0051158048   0.12911843    -0.83580389   
    536000   0.91170782     0.0057994629   0.0058564039  -0.89907012   
    537000   1.0111137      0.0032848075   0.11682418    -0.88676887   
    538000   1.0210496      0.0051467984   0.14756461    -0.86589042   
    539000   0.99637742     0.0045313812   0.087892477   -0.90107388   
    540000   0.96575757     0.0058926607   0.074362861   -0.88421139   
    541000   0.98430819     0.0058749382   0.13431887    -0.84266801   
    542000   0.93985738     0.0051794879   0.062621454   -0.87024525   
    543000   1.0585445      0.0057926966   0.1950013     -0.85566976   
    544000   1.0116393      0.0048188137   0.13222183    -0.87189286   
    545000   1.0103794      0.0040840332   0.12072311    -0.88214105   
    546000   0.9496531      0.0044439321   0.092866332   -0.84972323   
    547000   1.1309654      0.0062963632   0.24677959    -0.87577363   
    548000   1.0536029      0.0060521886   0.18284277    -0.86292344   
    549000   0.94875836     0.003890655    0.071389092   -0.87031239   
    550000   1.0104003      0.005818614    0.15361738    -0.84926754   
    551000   1.0411489      0.0041730231   0.16514029    -0.86826455   
    552000   0.98393571     0.0047745268   0.10754887    -0.8690683    
    553000   0.96161516     0.0056242046   0.082971544   -0.87149111   
    554000   1.0010051      0.004010231    0.14027933    -0.85328031   
    555000   1.0389276      0.0059791353   0.16683135    -0.86436871   
    556000   0.98786509     0.0051369663   0.081661767   -0.89885556   
    557000   1.0086114      0.0056046457   0.11835037    -0.88275896   
    558000   0.97475854     0.0056863932   0.11716111    -0.85034716   
    559000   0.9519947      0.005634058    0.096410965   -0.84850278   
    560000   1.0070888      0.0060306907   0.1285559     -0.87104215   
    561000   0.96470172     0.0068492654   0.074940581   -0.88258567   
    562000   0.9732405      0.0064678403   0.083802778   -0.88219875   
    563000   1.0363788      0.0050022779   0.139772      -0.88889815   
    564000   1.0010066      0.0047782918   0.16613633    -0.82742481   
    565000   1.039359       0.0062706792   0.18482973    -0.84679851   
    566000   0.98612204     0.0053871232   0.11356033    -0.86522692   
    567000   1.0177977      0.0059358704   0.16994629    -0.84028106   
    568000   1.043406       0.0056503422   0.22176129    -0.81388382   
    569000   0.98821447     0.0054060205   0.13826108    -0.84260304   
    570000   0.93352413     0.0047448165   0.074680714   -0.85189985   
    571000   0.95632061     0.0050392453   0.11822657    -0.8309809    
    572000   1.0669159      0.0057803294   0.22579608    -0.83318411   
    573000   0.98089382     0.0053195106   0.14877621    -0.82482171   
    574000   1.0294492      0.005341488    0.18068845    -0.84110368   
    575000   0.97403374     0.0041629164   0.12698215    -0.83980671   
    576000   1.0429968      0.006972198    0.20156938    -0.83366958   
    577000   0.9425655      0.006187021    0.061546587   -0.8740081    
    578000   1.0301143      0.0062340187   0.15465626    -0.86779604   
    579000   1.044702       0.005628931    0.18884234    -0.84808919   
    580000   0.99135531     0.0054770389   0.18470895    -0.79927264   
    581000   1.0077041      0.0044070146   0.17835392    -0.82185489   
    582000   0.99787281     0.0061421744   0.18525095    -0.80519967   
    583000   1.0000148      0.0063471736   0.18660255    -0.80597418   
    584000   0.9156594      0.0052443762   0.09815326    -0.81069545   
    585000   1.0401832      0.0066714935   0.25691749    -0.77552878   
    586000   1.0071616      0.0046112295   0.22844534    -0.77122493   
    587000   0.96021027     0.0042449912   0.14959363    -0.80347458   
    588000   0.92952782     0.0053410135   0.1041554     -0.81845858   
    589000   0.95484306     0.0043937838   0.12277061    -0.82497032   
    590000   1.0758714      0.0057864063   0.24456382    -0.82330524   
    591000   1.0089963      0.0061373625   0.16192337    -0.83956796   
    592000   0.96313079     0.0039362959   0.13495948    -0.82100753   
    593000   0.99085793     0.005563206    0.16626854    -0.81721938   
    594000   0.97038511     0.0051817269   0.17706556    -0.78610181   
    595000   1.0155561      0.0047584236   0.21341221    -0.79459021   
    596000   1.0738399      0.0057720207   0.28877597    -0.77707671   
    597000   0.99107925     0.0061511447   0.20095447    -0.78275312   
    598000   0.9871123      0.0061139586   0.18372921    -0.79604093   
    599000   1.001936       0.0060398882   0.17126098    -0.82322263   
    600000   1.0114658      0.0059677864   0.19282497    -0.81111757   
    601000   1.0092266      0.0063670708   0.19515281    -0.80656713   
    602000   0.97560908     0.0050949411   0.17216543    -0.79618704   
    603000   1.0360257      0.0064000963   0.1783558     -0.84996396   
    604000   0.96497737     0.0044173463   0.12724513    -0.83055472   
    605000   1.0099505      0.004928687    0.18177938    -0.82065905   
    606000   1.0458683      0.0066062185   0.20509416    -0.83299493   
    607000   0.95509117     0.0046976805   0.11174167    -0.83624552   
    608000   1.0238354      0.0051229929   0.2106049     -0.80561522   
    609000   0.96999509     0.0045023031   0.15721306    -0.80556719   
    610000   0.97927898     0.0050998061   0.14204267    -0.82995242   
    611000   1.0001838      0.005183917    0.20416135    -0.78858311   
    612000   0.96537071     0.0053993276   0.13112041    -0.82706986   
    613000   1.0225547      0.0047848411   0.19988885    -0.81506009   
    614000   1.0359069      0.0072442485   0.18130618    -0.84689565   
    615000   0.99227773     0.005911185    0.16486295    -0.82003421   
    616000   0.98040929     0.0044886241   0.16596811    -0.80714888   
    617000   0.98958731     0.0052511345   0.14489097    -0.83733577   
    618000   0.94845953     0.0052467344   0.12751277    -0.8138921    
    619000   0.96704197     0.0055323785   0.12606874    -0.83378035   
    620000   1.0054197      0.0049702494   0.15518069    -0.84276072   
    621000   1.0223104      0.0061579016   0.15128675    -0.86341973   
    622000   0.98677365     0.0061936213   0.13297333    -0.84646068   
    623000   1.0109807      0.0051239897   0.13946246    -0.86399853   
    624000   0.98264706     0.0063255245   0.13010261    -0.84523551   
    625000   0.94594234     0.0045300139   0.11278691    -0.8261195    
    626000   0.98455036     0.0054688973   0.14105255    -0.83617471   
    627000   1.1081957      0.0062278368   0.27365818    -0.82629478   
    628000   0.98531759     0.0059966146   0.13616099    -0.84182779   
    629000   0.95207065     0.0065491214   0.10147531    -0.84351382   
    630000   0.99440635     0.003915323    0.13503332    -0.85197662   
    631000   0.96893084     0.0049612082   0.11569109    -0.84603283   
    632000   0.95909271     0.0061281403   0.11728118    -0.83467779   
    633000   0.97151141     0.0049704045   0.12929609    -0.83498919   
    634000   1.0312228      0.0052876673   0.19721085    -0.82634167   
    635000   0.9838781      0.005658843    0.12552295    -0.85103705   
    636000   0.94714948     0.0049429725   0.12173032    -0.81837425   
    637000   0.93606909     0.0035601528   0.11556577    -0.81354082   
    638000   1.0248429      0.0057918206   0.18622114    -0.83099894   
    639000   1.0289327      0.0047993699   0.15466578    -0.86661373   
    640000   0.92015346     0.0054688507   0.087144432   -0.82616491   
    641000   1.0080138      0.0059053909   0.22766218    -0.772854     
    642000   0.99308832     0.0052476992   0.15935781    -0.82634391   
    643000   0.9770617      0.0050903734   0.17221974    -0.79757456   
    644000   1.0235366      0.0047229932   0.19559781    -0.82032576   
    645000   0.96379846     0.0054816239   0.16034061    -0.79628909   
    646000   1.0646149      0.0052443985   0.22748053    -0.82921572   
    647000   0.99222724     0.0062530719   0.15553052    -0.82931652   
    648000   0.99188246     0.0060952945   0.16367364    -0.82083118   
    649000   0.98309773     0.0060367588   0.15109957    -0.82468586   
    650000   0.99157616     0.0065795484   0.16586879    -0.81833202   
    651000   0.9694951      0.0048665484   0.15745161    -0.80483237   
    652000   1.0512589      0.006272639    0.21491811    -0.82852146   
    653000   1.0272189      0.0059556618   0.19711563    -0.82246275   
    654000   1.0332081      0.0063615997   0.21131968    -0.8142034    
    655000   0.93167834     0.0043652012   0.10128924    -0.82345927   
    656000   0.95226645     0.0057409098   0.082153462   -0.86303002   
    657000   0.98135535     0.0056414349   0.11631576    -0.85774025   
    658000   0.99836062     0.0045299859   0.19809081    -0.79284398   
    659000   1.0248524      0.004371658    0.1735711     -0.84365845   
    660000   0.98216425     0.004559357    0.15027659    -0.8245823    
    661000   0.99295098     0.0058963129   0.13969161    -0.84587379   
    662000   0.94269895     0.0063033178   0.12553205    -0.81015509   
    663000   0.99817038     0.0055208419   0.16778287    -0.8229631    
    664000   1.0039261      0.0063706738   0.18063433    -0.81582456   
    665000   1.0461802      0.0059887581   0.22410913    -0.8142896    
    666000   0.9533837      0.0055042961   0.13490931    -0.8113831    
    667000   1.049473       0.0069834929   0.24601077    -0.79565623   
    668000   0.92658523     0.0044431715   0.11942744    -0.80026584   
    669000   1.0091945      0.005435492    0.23063506    -0.77105299   
    670000   0.99317219     0.0065498326   0.18451701    -0.80126795   
    671000   0.99649351     0.0053768518   0.18843867    -0.8006429    
    672000   1.0344748      0.0064907394   0.21976653    -0.80701386   
    673000   1.0186823      0.006247823    0.17308275    -0.83802255   
    674000   0.98583743     0.0047208062   0.15437919    -0.82412556   
    675000   0.98867056     0.0057235289   0.18919328    -0.79212353   
    676000   0.95695408     0.0039991083   0.12712842    -0.82270782   
    677000   1.0478694      0.0074936786   0.24828164    -0.79179371   
    678000   1.0015216      0.0067700978   0.16284364    -0.83122863   
    679000   1.0115903      0.0055591071   0.1592718     -0.84479431   
    680000   1.0008412      0.0056658094   0.20211359    -0.79128329   
    681000   0.97330805     0.0064901493   0.12974529    -0.83632328   
    682000   0.90083668     0.0054912274   0.052057492   -0.84207875   
    683000   0.98839674     0.0057621816   0.14207986    -0.83896516   
    684000   1.018726       0.0047367303   0.16448628    -0.84666237   
    685000   0.95505861     0.0056035143   0.10084943    -0.84710544   
    686000   0.93044671     0.0056103684   0.055533339   -0.86799269   
    687000   0.9708511      0.0056207218   0.10345213    -0.86017777   
    688000   1.0027799      0.005756807    0.13149313    -0.86382804   
    689000   0.99331442     0.0052157098   0.1382963     -0.84762983   
    690000   1.0384516      0.0047805571   0.19035984    -0.84036771   
    691000   1.0008493      0.0061045242   0.16192238    -0.83148259   
    692000   1.043609       0.006085357    0.16318757    -0.87265909   
    693000   1.02937        0.006573339    0.19125083    -0.83046266   
    694000   0.97688576     0.0054268547   0.14950302    -0.82011665   
    695000   0.91880565     0.0047990938   0.084945979   -0.82702557   
    696000   1.0799824      0.0059455527   0.2740409     -0.79790861   
    697000   0.9543741      0.0053694828   0.12856923    -0.81870621   
    698000   0.98535219     0.0054082766   0.16230586    -0.81571726   
    699000   0.99873083     0.0057443395   0.16064102    -0.83066123   
    700000   0.9951913      0.0054000024   0.1869087     -0.80088035   
    701000   1.0317218      0.0065755962   0.21444272    -0.8096051    
    702000   1.0851123      0.0068681401   0.29258693    -0.78445431   
    703000   1.0534644      0.0066102705   0.18531731    -0.8603114    
    704000   1.0004606      0.0053661537   0.14774744    -0.8452717    
    705000   1.0019645      0.004782797    0.13756629    -0.8569456    
    706000   0.99942961     0.0049564949   0.14866549    -0.84333034   
    707000   1.1139635      0.0051046293   0.25148437    -0.85419348   
    708000   0.9424935      0.006370559    0.10606419    -0.82941903   
    709000   0.9759025      0.0050307743   0.12355117    -0.84509256   
    710000   1.0346896      0.0058390298   0.16203836    -0.86495521   
    711000   1.0943869      0.0067066283   0.21591365    -0.87033318   
    712000   1.0124052      0.006300393    0.13675387    -0.86812104   
    713000   1.0901118      0.0058869353   0.23218935    -0.84981415   
    714000   0.99754427     0.0051611443   0.137211      -0.85291352   
    715000   0.98584162     0.0045375703   0.1362188     -0.84229011   
    716000   1.0184352      0.0054461591   0.13132015    -0.87953995   
    717000   1.0091755      0.0055734001   0.11129919    -0.89037002   
    718000   1.0528371      0.00582102     0.14624019    -0.89876592   
    719000   0.96719174     0.0051664197   0.074269764   -0.88572799   
    720000   1.015046       0.0059926029   0.094724659   -0.91277142   
    721000   0.91028273     0.0042755228   0.023960462   -0.87955157   
    722000   1.0139607      0.0058890693   0.10951569    -0.89690314   
    723000   0.92022337     0.0042998906  -0.0059524285  -0.91933116   
    724000   1.0010021      0.0051443635   0.078556193   -0.91500042   
    725000   0.97182601     0.0040584667   0.064357079   -0.90024048   
    726000   0.98753518     0.0060300019   0.05268145    -0.92750843   
    727000   1.0160887      0.0056662099   0.043968224   -0.96456284   
    728000   0.96989169     0.0061434452   0.031322895   -0.93135472   
    729000   1.0386591      0.0055953021   0.11310823    -0.9178253    
    730000   0.97556317     0.0056151307   0.049465469   -0.91884144   
    731000   1.0337109      0.0061791693   0.09980832    -0.92621385   
    732000   1.0207356      0.0049584729   0.08847509    -0.92466829   
    733000   0.9501277      0.0037107457   0.0019097683  -0.94115086   
    734000   0.98872108     0.0056267931   0.071145163   -0.91022179   
    735000   1.0103366      0.0061329477   0.056925073   -0.94589659   
    736000   0.95759733     0.0051995029   0.034286413   -0.91618829   
    737000   1.0027735      0.0054889921   0.10321067    -0.89210417   
    738000   1.0258143      0.0054579056   0.12301888    -0.89516536   
    739000   1.0029245      0.0053922776   0.040422522   -0.95504217   
    740000   0.92053653     0.0043232356  -0.024187667   -0.93787724   
    741000   0.99601351     0.0052225632   0.038789245   -0.94981591   
    742000   0.93833209     0.0030297039   0.0073210405  -0.92403172   
    743000   1.0083355      0.0055080188   0.052304235   -0.94853127   
    744000   0.97558749     0.0054713445   0.0081076568  -0.96022339   
    745000   1.0079055      0.0062742234   0.061558467   -0.93885022   
    746000   0.99594051     0.0057614488   0.042211368   -0.94632132   
    747000   0.98777022     0.0053039373   0.049523857   -0.93089931   
    748000   0.9853716      0.0053702239   0.051661622   -0.92638076   
    749000   1.0571618      0.0051762866   0.16206685    -0.88723179   
    750000   0.96870665     0.0054832321   0.053009106   -0.90849229   
    751000   1.0575599      0.0072229061   0.13129342    -0.91840032   
    752000   1.0617182      0.0061466523   0.13808882    -0.91573227   
    753000   1.0222694      0.0048502283   0.11211098    -0.90255479   
    754000   1.0498162      0.0052211111   0.12786922    -0.91413842   
    755000   0.96816907     0.0058541156   0.068327898   -0.89263992   
    756000   0.96466494     0.0046897131   0.012180199   -0.94530955   
    757000   1.0285475      0.0062833297   0.075796938   -0.94510018   
    758000   0.9465717      0.0042899828   0.0045413342  -0.93498975   
    759000   0.93804515     0.0035553281   0.0037625774  -0.92730538   
    760000   0.97485458     0.0059884151   0.054132441   -0.91347115   
    761000   1.0596828      0.0055052472   0.12239147    -0.92940939   
    762000   1.0420849      0.0055978842   0.13014694    -0.90418694   
    763000   1.0609894      0.0059105538   0.12082576    -0.932272     
    764000   1.0390182      0.0043391986   0.12076233    -0.91052767   
    765000   1.0483559      0.006156595    0.16217284    -0.87838541   
    766000   0.95621614     0.0047469332   0.046975859   -0.90212793   
    767000   1.0244963      0.0043662972   0.14410897    -0.87276714   
    768000   1.0506941      0.0059434275   0.13514164    -0.90773736   
    769000   1.0149496      0.0052009199   0.094577273   -0.91282312   
    770000   1.0260098      0.0052252133   0.090577372   -0.92780096   
    771000   0.98696911     0.0063056613   0.065794302   -0.91383371   
    772000   1.023627       0.0057397407   0.10892887    -0.90708434   
    773000   0.98483078     0.0046205586   0.047909085   -0.92959651   
    774000   0.8975928      0.0049116614   0.027576311   -0.86334018   
    775000   0.97544061     0.0050099346   0.096909345   -0.87127592   
    776000   1.0429421      0.0062877477   0.16590265    -0.869282     
    777000   0.98595477     0.003726591    0.081926598   -0.89669462   
    778000   0.94860167     0.0044629201   0.041694797   -0.89985116   
    779000   0.98684798     0.0054733209   0.092577704   -0.88693008   
    780000   1.0777522      0.0062056742   0.15946578    -0.91027012   
    781000   1.0416975      0.0045683822   0.15306239    -0.88088693   
    782000   0.9608502      0.0055694497   0.1099333     -0.84377007   
    783000   1.0643155      0.0061495008   0.19491076    -0.86148835   
    784000   1.0295687      0.0058139597   0.14839517    -0.87351554   
    785000   0.97018636     0.0062141564   0.079090657   -0.88387944   
    786000   0.97877862     0.0064398815   0.091139672   -0.88035877   
    787000   1.0683067      0.0049907338   0.19531677    -0.86504385   
    788000   0.99351409     0.0060666428   0.12610873    -0.86001558   
    789000   0.97610451     0.0049082857   0.083863552   -0.88498068   
    790000   0.93195218     0.0048098292   0.088917506   -0.83610279   
    791000   1.0323882      0.0051826184   0.17059461    -0.85411467   
    792000   1.0720812      0.0056956184   0.21682772    -0.84727935   
    793000   0.98244381     0.0067805069   0.10136736    -0.87376902   
    794000   0.99181221     0.0058342188   0.14171688    -0.84271822   
    795000   1.0037787      0.0055803336   0.1258578     -0.8704548    
    796000   0.94713154     0.0044776456   0.066256488   -0.87383027   
    797000   1.0164774      0.0049419108   0.19161757    -0.81729928   
    798000   0.97919916     0.0054170255   0.13383432    -0.83808154   
    799000   1.0048738      0.0045500315   0.16681036    -0.83058921   
    800000   0.99892223     0.0051760664   0.11287967    -0.87861257   
    801000   1.0167097      0.005759486    0.13068659    -0.8784608    
    802000   1.0652263      0.0058855147   0.16447928    -0.89282388   
    803000   1.0714127      0.0068538885   0.17356897    -0.88987459   
    804000   0.97752419     0.0047349028   0.086908445   -0.8833449    
    805000   1.0107497      0.0068420023   0.10602483    -0.89720686   
    806000   0.98141024     0.00520501     0.12750558    -0.84660491   
    807000   1.0106959      0.0052584398   0.12480687    -0.87837145   
    808000   0.91025027     0.0033377392   0.04423518    -0.85924464   
    809000   0.99143375     0.0053160697   0.15251313    -0.83154632   
    810000   1.0241675      0.0051055258   0.17068538    -0.84586431   
    811000   0.97778278     0.0053214045   0.13739828    -0.83311173   
    812000   1.0657518      0.0070335008   0.20930635    -0.84851842   
    813000   0.98634602     0.0061253821   0.13725174    -0.84175782   
    814000   1.034283       0.0053876498   0.17456959    -0.85202037   
    815000   0.99489126     0.0057169454   0.12445579    -0.86303545   
    816000   0.99836433     0.0043427278   0.15319888    -0.8377396    
    817000   0.97200926     0.0066313365   0.11666319    -0.84811625   
    818000   1.0094285      0.0053110972   0.16877751    -0.83314289   
    819000   1.0170166      0.0044150563   0.1667313     -0.84272075   
    820000   0.97707186     0.0062517947   0.075594176   -0.8942102    
    821000   0.96823568     0.0063130597   0.081288172   -0.87974576   
    822000   1.0291447      0.0059344908   0.11972311    -0.90176683   
    823000   1.0063987      0.0057169669   0.11328607    -0.88562699   
    824000   1.0220452      0.0062297908   0.11228012    -0.9021631    
    825000   1.0316559      0.0060174654   0.15282943    -0.87115297   
    826000   0.99052381     0.0031567514   0.12116436    -0.86199191   
    827000   0.98514162     0.006945496    0.094746514   -0.8830676    
    828000   0.9867714      0.0070415444   0.097574411   -0.88185736   
    829000   0.96515543     0.0063166729   0.073575879   -0.88440071   
    830000   1.0187084      0.0057328121   0.13989976    -0.87123143   
    831000   0.99354628     0.004913022    0.096119891   -0.89003638   
    832000   0.95626463     0.0031444326   0.091259224   -0.85789269   
    833000   1.016702       0.0051552638   0.11063449    -0.89850526   
    834000   1.0103374      0.005392955    0.14009001    -0.86273244   
    835000   0.96287794     0.0055178388   0.056537563   -0.89917847   
    836000   1.0350422      0.0058951231   0.12141881    -0.90592468   
    837000   1.0138019      0.0057392043   0.14225502    -0.86400625   
    838000   1.0795318      0.0062825122   0.19855536    -0.87294689   
    839000   0.97970179     0.0053969695   0.048283025   -0.92413172   
    840000   1.041378       0.0045598402   0.12791816    -0.90571405   
    841000   1.0161322      0.0063959801   0.12078137    -0.88779286   
    842000   0.98342759     0.0061382131   0.12782165    -0.84829119   
    843000   0.95495001     0.0064351256   0.08788107    -0.85996601   
    844000   0.97652719     0.0062583513   0.10112       -0.86814376   
    845000   1.0766382      0.0066568823   0.21011207    -0.85851804   
    846000   1.066774       0.0050783656   0.21715455    -0.84168473   
    847000   1.0169721      0.0055161268   0.17698075    -0.83242714   
    848000   1.0107104      0.005104155    0.1419931     -0.86119963   
    849000   0.9674562      0.0040819958   0.065201185   -0.89505906   
    850000   1.0904574      0.0060138287   0.19937812    -0.88296843   
    851000   0.97661275     0.0055225373   0.098150934   -0.87119776   
    852000   0.97103503     0.0049871497   0.1086958     -0.85511666   
    853000   0.99566833     0.0046543336   0.0972903     -0.89097223   
    854000   1.0336702      0.0046693971   0.13651454    -0.8894672    
    855000   0.97507044     0.0053283747   0.09101208    -0.87680577   
    856000   1.038082       0.0049425687   0.10420108    -0.9261597    
    857000   0.89117958     0.0051714522   0.0083906096  -0.87616036   
    858000   1.008179       0.0048137008   0.12468347    -0.87599669   
    859000   1.0114891      0.0048884835   0.095696701   -0.90826888   
    860000   1.0075076      0.0073003608   0.11792426    -0.88208951   
    861000   1.0155232      0.0053431677   0.14611857    -0.86185117   
    862000   1.042566       0.0054567796   0.15406496    -0.88074637   
    863000   1.0151003      0.0055134765   0.14675178    -0.86079816   
    864000   1.0061664      0.0053997991   0.15022377    -0.84845872   
    865000   1.0136787      0.0051555922   0.16660226    -0.83953672   
    866000   1.0297644      0.0051207281   0.15664509    -0.86545991   
    867000   0.94617218     0.0053967874   0.10594969    -0.83318485   
    868000   1.0125519      0.0052968911   0.14685377    -0.85816677   
    869000   0.98266125     0.0057464616   0.15127313    -0.82407908   
    870000   0.99255986     0.0048901201   0.15867331    -0.82650388   
    871000   0.9063958      0.0042786213   0.075261815   -0.8243922    
    872000   1.0118316      0.0044494878   0.13687282    -0.86743277   
    873000   1.0270901      0.0044504774   0.17451375    -0.84493686   
    874000   0.98865684     0.0046736245   0.14683742    -0.83446578   
    875000   1.0164191      0.0045991001   0.16314691    -0.84571208   
    876000   1.0064311      0.0052651678   0.1208828     -0.87806241   
    877000   1.0309903      0.0055715776   0.1682058     -0.85511595   
    878000   0.95791127     0.0059211929   0.097433114   -0.8533532    
    879000   0.99029221     0.0051258636   0.12460794    -0.85831846   
    880000   0.99872717     0.0052626722   0.13028363    -0.86101499   
    881000   0.98341057     0.0058340103   0.084229306   -0.89186664   
    882000   1.0178196      0.0058509693   0.13205737    -0.87819163   
    883000   0.94104177     0.0048806307   0.072359513   -0.86168277   
    884000   1.0002968      0.0043590625   0.12624373    -0.86661287   
    885000   1.0724717      0.0059085229   0.21379278    -0.85070184   
    886000   0.95918775     0.0042451034   0.07478958    -0.87726371   
    887000   0.99714401     0.0047638388   0.14059803    -0.84912921   
    888000   1.0255184      0.005936233    0.15139961    -0.86649097   
    889000   1.0032094      0.0058393617   0.16148984    -0.83425766   
    890000   0.99093725     0.0062213532   0.13602476    -0.84754188   
    891000   1.0114213      0.0063139095   0.11415331    -0.88974505   
    892000   0.97092342     0.005912568    0.071129557   -0.89257212   
    893000   1.0160376      0.0075768583   0.13667108    -0.87180919   
    894000   1.0450542      0.0062159546   0.19191865    -0.84536238   
    895000   1.0206128      0.0046228934   0.13308486    -0.87993661   
    896000   0.97517327     0.006280673    0.10908847    -0.85883144   
    897000   0.9762274      0.00420718     0.088320165   -0.88064604   
    898000   1.0333933      0.0055183921   0.16935688    -0.85635004   
    899000   1.0402858      0.0058240789   0.14612451    -0.88642367   
    900000   0.99694641     0.0049187596   0.13941021    -0.8501209    
    901000   0.93945274     0.0033524512   0.10495336    -0.82751172   
    902000   1.0554772      0.0064066048   0.15672683    -0.89089971   
    903000   1.0171649      0.004652995    0.15301598    -0.85658324   
    904000   0.99112317     0.0056432634   0.1117043     -0.87204688   
    905000   1.0206588      0.0047920996   0.16674752    -0.8463196    
    906000   0.99672282     0.0053418328   0.10797982    -0.88132935   
    907000   1.0070815      0.0048380272   0.15366071    -0.84593006   
    908000   0.94119431     0.0056256298   0.068876714   -0.86531697   
    909000   1.025286       0.0058564553   0.16991461    -0.84774525   
    910000   1.0041335      0.0061036858   0.12682137    -0.86984335   
    911000   0.98365851     0.0068918921   0.16731746    -0.80902458   
    912000   1.0732787      0.0057638018   0.26117209    -0.8041235    
    913000   0.96812576     0.0054979106   0.17303157    -0.78789326   
    914000   1.0245275      0.0064744128   0.19765266    -0.81925443   
    915000   1.0262665      0.0053602177   0.175951      -0.84268206   
    916000   1.0287637      0.0067138016   0.17303183    -0.84807992   
    917000   1.0073037      0.0074073103   0.15663669    -0.84317468   
    918000   0.98300917     0.0053415065   0.13966585    -0.83603168   
    919000   1.0277093      0.0055437566   0.18355559    -0.8365096    
    920000   0.97521609     0.0048584468   0.13279687    -0.83516554   
    921000   1.0851277      0.0067367082   0.23348421    -0.84357231   
    922000   0.99114442     0.0063789365   0.12097475    -0.86279752   
    923000   0.99649177     0.0060777641   0.15630193    -0.83277792   
    924000   0.97015317     0.0046777964   0.13769238    -0.82524477   
    925000   1.1860328      0.0065931418   0.32836939    -0.8488417    
    926000   1.0225156      0.0058263672   0.16394953    -0.85096061   
    927000   0.97368483     0.0054634574   0.12237989    -0.84406266   
    928000   0.98643214     0.0058146736   0.094293851   -0.88480119   
    929000   0.94016961     0.0049656258   0.035371852   -0.89780476   
    930000   1.0381057      0.0049645765   0.15356122    -0.87682305   
    931000   0.91875292     0.0042159727   0.049372474   -0.86254675   
    932000   0.99204344     0.0057066973   0.1267817     -0.85788291   
    933000   1.0140579      0.005426265    0.16601238    -0.84050297   
    934000   0.96478209     0.0055784033   0.083336981   -0.87426904   
    935000   0.91453882     0.0054050005   0.013768644   -0.89396782   
    936000   1.0191175      0.0069461961   0.14256679    -0.8689705    
    937000   1.0115437      0.0054885084   0.14306896    -0.86095087   
    938000   0.99473226     0.0044922881   0.14618773    -0.8411457    
    939000   0.91177593     0.0048840576   0.029071418   -0.8759227    
    940000   1.0019454      0.0047248966   0.11706046    -0.87743247   
    941000   0.9783952      0.0048810512   0.099931729   -0.87118616   
    942000   1.0726933      0.0050249058   0.16542469    -0.89928988   
    943000   0.92627702     0.0044638571   0.025745761   -0.8936416    
    944000   0.99084797     0.0049172395   0.10224651    -0.88123151   
    945000   1.0432092      0.0056384454   0.1401079     -0.89534187   
    946000   0.99486745     0.0070593651   0.08367699    -0.90379062   
    947000   0.9921166      0.0051207779   0.1039275     -0.88080972   
    948000   1.0649341      0.005869019    0.19344456    -0.86356855   
    949000   0.95349593     0.0046688456   0.061029092   -0.88537472   
    950000   1.0056321      0.0054433014   0.15653611    -0.84161608   
    951000   0.94246056     0.0039191354   0.08139922    -0.8540513    
    952000   1.0584822      0.0064168498   0.17040265    -0.88020657   
    953000   1.0260028      0.0060130746   0.13415926    -0.88421213   
    954000   1.073357       0.0053303112   0.22338775    -0.84198558   
    955000   1.0553457      0.007478471    0.17290703    -0.87458903   
    956000   1.0261609      0.0058029869   0.12431361    -0.8942147    
    957000   1.0533879      0.0063913151   0.1500585     -0.89549427   
    958000   0.95319632     0.0042829266   0.07334017    -0.87276626   
    959000   1.0190205      0.0048390516   0.14625801    -0.86518301   
    960000   1.0247872      0.0043831271   0.11534765    -0.90181717   
    961000   1.0135232      0.005572636    0.12890944    -0.87707515   
    962000   0.96196598     0.0048973657   0.072623909   -0.88218695   
    963000   0.97200685     0.0053968259   0.037535484   -0.92724156   
    964000   0.97633336     0.0053709697   0.02979351    -0.93927786   
    965000   1.0879942      0.0052156862   0.16884995    -0.91105172   
    966000   1.0025752      0.0063075007   0.11054893    -0.8845691    
    967000   1.0371735      0.0055653958   0.15089521    -0.87856379   
    968000   0.96075604     0.0046487164   0.073112128   -0.88049779   
    969000   0.95454401     0.0047784365   0.078010579   -0.86943352   
    970000   1.0641606      0.0062127866   0.15279977    -0.90344558   
    971000   1.0046428      0.0043983556   0.15374678    -0.84342348   
    972000   1.0684365      0.0055496268   0.15639818    -0.90409123   
    973000   1.0449673      0.0052342156   0.15383279    -0.88336199   
    974000   0.98825443     0.0052741329   0.10246542    -0.87843836   
    975000   0.98770561     0.0058804169   0.14030351    -0.84005553   
    976000   0.99017178     0.0064584408   0.077212401   -0.90559446   
    977000   0.9858273      0.0052745903   0.090629786   -0.88786492   
    978000   0.95030126     0.004728176    0.063825013   -0.87940789   
    979000   0.97949709     0.0045552586   0.12820515    -0.84400642   
    980000   0.97695818     0.0045711967   0.098304413   -0.87138714   
    981000   1.0512461      0.0066234767   0.17349952    -0.86992737   
    982000   0.98612944     0.0055890842   0.1219176     -0.856877     
    983000   0.96975115     0.0049837509   0.11935498    -0.84318314   
    984000   0.9710858      0.0053924886   0.13106159    -0.83280126   
    985000   1.0293576      0.0061819452   0.15128929    -0.87041188   
    986000   1.0715865      0.0051962793   0.2191153     -0.84450076   
    987000   0.97104333     0.0054267079   0.094138567   -0.86968213   
    988000   0.98709652     0.0058491106   0.12074419    -0.85901029   
    989000   1.1148266      0.0065902363   0.23675332    -0.86978116   
    990000   1.0014202      0.0062307482   0.11133387    -0.8826378    
    991000   0.97915409     0.0059582705   0.13922921    -0.83264192   
    992000   0.95010976     0.0061234668   0.086679465   -0.85636336   
    993000   0.96953267     0.0050140925   0.087712282   -0.87460899   
    994000   0.93137614     0.0038105603   0.032873693   -0.89157485   
    995000   0.967478       0.0043184139   0.10952973    -0.85075215   
    996000   1.0201786      0.0052123531   0.16761698    -0.84497347   
    997000   1.013678       0.0052485966   0.11650904    -0.8896292    
    998000   1.0210075      0.0068053158   0.11152464    -0.90188861   
    999000   0.9788976      0.0053663589   0.11424615    -0.85737039   
   1000000   0.97764143     0.0062909656   0.065221151   -0.90514857   
Loop time of 33.2056 on 1 procs for 1000000 steps with 605 atoms

Performance: 26019746.209 tau/day, 30115.447 timesteps/s
98.4% CPU use with 1 MPI tasks x no OpenMP threads

MPI task timing breakdown:
Section |  min time  |  avg time  |  max time  |%varavg| %total
---------------------------------------------------------------
Pair    | 3.1531     | 3.1531     | 3.1531     |   0.0 |  9.50
Bond    | 0.046467   | 0.046467   | 0.046467   |   0.0 |  0.14
Neigh   | 9.2244     | 9.2244     | 9.2244     |   0.0 | 27.78
Comm    | 1.387      | 1.387      | 1.387      |   0.0 |  4.18
Output  | 0.54122    | 0.54122    | 0.54122    |   0.0 |  1.63
Modify  | 16.736     | 16.736     | 16.736     |   0.0 | 50.40
Other   |            | 2.117      |            |       |  6.38

Nlocal:            605 ave         605 max         605 min
Histogram: 1 0 0 0 0 0 0 0 0 0
Nghost:             83 ave          83 max          83 min
Histogram: 1 0 0 0 0 0 0 0 0 0
Neighs:            226 ave         226 max         226 min
Histogram: 1 0 0 0 0 0 0 0 0 0

Total # of neighbors = 226
Ave neighs/atom = 0.37355372
Ave special neighs/atom = 0
Neighbor list builds = 218181
Dangerous builds = 0
Total wall time: 0:00:33
