fix fLANG all langevin 1.0 1.0 1.0 100
fix NVE all nve 1.0 1.0 1.0

    ##======================================##
    ## Output
    ##======================================##

thermo 1000
thermo_style custom step temp press etotal epair
thermo_modify flush yes
timestep 0.01

    ##======================================##
    ## Equilibration before output
    ##======================================##


    ##======================================##
    ## Run with output
    ##======================================##

fix enforce_2d all enforce2d
dump 2 all custom 1000 Results_eps_attr5_eps_rep1_eps_rep_weak0_range2_attr_with_repFalse_n_synapsin400_n_vesicles0/Movie_2d_eps_attr5_eps_rep1_eps_rep_weak0_range2_attr_with_repFalse_n_synapsin400_n_vesicles0.xyz id type mol x y z
run 1000000
Generated 0 of 1 mixed pair_coeff terms from geometric mixing rule
Neighbor list info ...
  update every 1 steps, delay 1 steps, check yes
  max neighbors/atom: 2000, page size: 100000
  master list distance cutoff = 3.3
  ghost atom cutoff = 3.3
  binsize = 1.65, bins = 190 190 1
  1 neighbor lists, perpetual/occasional/extra = 1 0 0
  (1) pair cosine/squared, perpetual
      attributes: half, newton on
      pair build: half/bin/newton
      stencil: half/bin/2d
      bin: standard
Per MPI rank memory allocation (min/avg/max) = 7.407 | 7.407 | 7.407 Mbytes
   Step          Temp          Press          TotEng         E_pair    
         0   1              0.00408576     0.9975         0            
      1000   0.9997026      0.0040845449   0.99720335     0            
      2000   1.0138472      0.0041423363   1.0113126      0            
      3000   1.0301182      0.0042088156   1.0275429      0            
      4000   1.1186648      0.004570596    1.1158682      0            
      5000   1.0276463      0.0041987162   1.0250772      0            
      6000   0.98995127     0.0040447033   0.98747639     0            
      7000   1.0650817      0.0043516683   1.062419       0            
      8000   0.9744139      0.0039812213   0.97197787     0            
      9000   1.0294012      0.0042058863   1.0268277      0            
     10000   1.004843       0.0041055475   1.0023309      0            
     11000   1.0142744      0.0041440819   1.0117387      0            
     12000   0.8841559      0.0036124488   0.88194551     0            
     13000   1.026035       0.0041921327   1.0234699      0            
     14000   0.98022131     0.0040143134   0.97781589     4.5132942e-05
     15000   0.91847359     0.0037526627   0.91617741     0            
     16000   1.0089285      0.0041222395   1.0064061      0            
     17000   0.98598825     0.0040285113   0.98352328     0            
     18000   1.0277241      0.004199034    1.0251548      0            
     19000   1.0383625      0.0042425001   1.0357666      0            
     20000   1.0535391      0.0043045077   1.0509052      0            
     21000   0.92591128     0.0037830513   0.9235965      0            
     22000   1.048228       0.0042828082   1.0456075      0            
     23000   1.016476       0.0041530769   1.0139348      0            
     24000   0.91309492     0.0037306867   0.91081218     0            
     25000   1.0062507      0.0041112988   1.0037351      0            
     26000   0.98779258     0.0040358834   0.9853231      0            
     27000   0.99840173     0.0040792298   0.99590572     0            
     28000   1.1233821      0.0045898697   1.1205737      0            
     29000   0.92804279     0.0038375462   0.92634171     0.00061902771
     30000   0.97119205     0.0039680576   0.96876407     0            
     31000   0.99535096     0.0040667651   0.99286258     0            
     32000   1.0551893      0.0043112504   1.0525514      0            
     33000   1.0466569      0.0042763889   1.0440403      0            
     34000   1.0334785      0.0042225451   1.0308948      0            
     35000   1.0494058      0.0042876201   1.0467822      0            
     36000   1.0146193      0.0041454909   1.0120827      0            
     37000   1.0144335      0.0041447318   1.0118974      0            
     38000   1.0284114      0.0042018421   1.0258404      0            
     39000   1.1458346      0.0046816053   1.1429701      0            
     40000   1.0576599      0.0043213445   1.0550157      0            
     41000   1.0166529      0.0041557334   1.0141136      2.3321162e-06
     42000   0.88922799     0.0036625484   0.88731698     0.00031206037
     43000   1.0114397      0.0041324997   1.0089111      0            
     44000   1.0358287      0.0042321475   1.0332391      0            
     45000   1.0281188      0.0042006466   1.0255485      0            
     46000   0.97123902     0.0039682495   0.96881092     0            
     47000   0.98552308     0.0040266108   0.98305927     0            
     48000   1.0778457      0.004403819    1.0751511      0            
     49000   1.0368505      0.0042363223   1.0342584      0            
     50000   1.0617181      0.0043379254   1.0590638      0            
     51000   1.046064       0.0042739663   1.0434488      0            
     52000   1.0416126      0.0042557791   1.0390086      0            
     53000   0.96848958     0.003957016    0.96606835     0            
     54000   1.0295815      0.0042209636   1.0271028      9.5333577e-05
     55000   1.0291996      0.0042050628   1.0266267      0            
     56000   1.0687056      0.0043666099   1.0660339      1.2061349e-08
     57000   1.039693       0.0042713117   1.0373099      0.00021611601
     58000   0.93759435     0.0038307855   0.93525036     0            
     59000   1.0196934      0.0041662227   1.0171442      0            
     60000   0.9464937      0.0038695916   0.94413114     3.6736815e-06
     61000   0.92671802     0.0037863474   0.92440122     0            
     62000   1.061204       0.0043358247   1.058551       0            
     63000   0.97134089     0.0039686657   0.96891253     0            
     64000   1.0732488      0.004385037    1.0705657      0            
     65000   0.95233778     0.0038910236   0.94995694     0            
     66000   0.97304318     0.0039762652   0.97061085     2.6928131e-07
     67000   1.002128       0.0040944543   0.99962264     0            
     68000   1.0326158      0.0042190202   1.0300342      0            
     69000   0.97374787     0.0039785001   0.9713135      0            
     70000   1.0095834      0.0041249157   1.0070595      0            
     71000   0.94119548     0.0038454988   0.93884249     0            
     72000   1.0491587      0.0042866105   1.0465358      0            
     73000   0.98904429     0.0040519826   0.98663161     5.9924818e-05
     74000   0.96865582     0.0039576952   0.96623418     0            
     75000   1.041933       0.0042570883   1.0393282      0            
     76000   0.9647567      0.0039417643   0.96234481     0            
     77000   0.95351445     0.0038958312   0.95113067     0            
     78000   0.95202067     0.003889728    0.94964061     0            
     79000   1.0149809      0.0042054925   1.0133333      0.00088984033
     80000   1.0721051      0.0043803641   1.0694248      0            
     81000   1.0518171      0.0042974722   1.0491875      0            
     82000   0.94951285     0.0038794816   0.94713907     0            
     83000   1.0807979      0.0044158809   1.0780959      0            
     84000   1.0169875      0.0041551667   1.014445       0            
     85000   1.0689721      0.0043675635   1.0662997      0            
     86000   1.0154152      0.0041487427   1.0128766      0            
     87000   0.94440792     0.0038862407   0.94232974     0.00028283549
     88000   0.94012592     0.0038411289   0.9377756      0            
     89000   0.89944497     0.0036749163   0.89719636     0            
     90000   0.94619309     0.0038659179   0.94382761     0            
     91000   1.0192195      0.0042772288   1.0189044      0.0022329441 
     92000   0.94059368     0.003855206    0.93831388     7.168873e-05 
     93000   0.99891205     0.0040813149   0.99641477     0            
     94000   1.084662       0.0044316684   1.0819503      0            
     95000   0.9825334      0.0040143957   0.98007706     0            
     96000   1.0514651      0.0042960342   1.0488365      0            
     97000   0.99329464     0.0040583635   0.9908114      0            
     98000   0.96788528     0.0039545469   0.96546556     0            
     99000   0.94946619     0.003879291    0.94709252     0            
    100000   1.0074517      0.0041430523   1.0052034      0.00027031498
    101000   1.0077154      0.0041172832   1.0051961      0            
    102000   0.99829456     0.004078792    0.99579882     0            
    103000   1.0773931      0.0044019695   1.0746996      0            
    104000   1.105696       0.0045176084   1.1029317      0            
    105000   0.98737089     0.0040341605   0.98490246     0            
    106000   0.94927749     0.00387852     0.94690429     0            
    107000   1.0148107      0.0041462732   1.0122737      0            
    108000   1.0385883      0.0042434227   1.0359919      0            
    109000   0.91832701     0.0037520638   0.91603119     0            
    110000   1.0126386      0.0041373984   1.010107       0            
    111000   1.0383127      0.0042422966   1.0357169      0            
    112000   0.94223521     0.0038497469   0.93987962     0            
    113000   0.94752159     0.0038713458   0.94515278     0            
    114000   1.0568653      0.0043180978   1.0542231      0            
    115000   0.90677724     0.0037048742   0.9045103      0            
    116000   0.96554637     0.0039449908   0.96313251     0            
    117000   1.0370668      0.0042430042   1.034493       1.8848171e-05
    118000   0.91816949     0.0037514202   0.91587406     0            
    119000   1.0503755      0.0042915821   1.0477495      0            
    120000   1.0366377      0.0042354529   1.0340461      0            
    121000   1.0666256      0.0043579763   1.0639591      0            
    122000   1.0871705      0.0044954947   1.0852345      0.00078191801
    123000   1.062165       0.0043397511   1.0595095      0            
    124000   1.0506489      0.0043108993   1.0481652      0.00014288446
    125000   1.0452558      0.0042706643   1.0426426      0            
    126000   0.99609347     0.0040697989   0.99360324     0            
    127000   0.96338913     0.0039361768   0.96098065     0            
    128000   0.99348978     0.0040698193   0.99106288     5.6815413e-05
    129000   1.0346357      0.0042445617   1.0321801      0.00013106248
    130000   0.9557758      0.0039050705   0.95338636     0            
    131000   1.0307054      0.0042112149   1.0281286      0            
    132000   1.0280387      0.0042003195   1.0254686      0            
    133000   0.96735013     0.0039523605   0.96493176     0            
    134000   0.99866795     0.0040803176   0.99617128     0            
    135000   1.0365033      0.0043609368   1.0360104      0.0020983509 
    136000   1.0022867      0.004095103    0.999781       0            
    137000   1.0231753      0.0041804486   1.0206173      0            
    138000   1.066757       0.0043658033   1.0641188      2.8713517e-05
    139000   0.98901703     0.0040408862   0.98654449     0            
    140000   0.96958375     0.0039723796   0.96721883     5.9043178e-05
    141000   1.0260732      0.0041922888   1.023508       0            
    142000   0.96054914     0.0039245732   0.95814776     0            
    143000   1.0442345      0.0042664915   1.0416239      0            
    144000   1.0567013      0.004317428    1.0540596      0            
    145000   0.98668055     0.0040313399   0.98421385     0            
    146000   0.94152397     0.003846841    0.93917016     0            
    147000   0.97946068     0.0040256046   0.97723401     0.00022198141
    148000   0.99386182     0.0040606809   0.99137717     0            
    149000   0.99967437     0.0040844295   0.99717518     0            
    150000   0.98183904     0.0040115587   0.97938444     0            
    151000   0.923874       0.0037747274   0.92156431     0            
    152000   0.9790177      0.0040000314   0.97657016     0            
    153000   1.0636143      0.0044015937   1.0617821      0.00082682838
    154000   1.0108345      0.0041300271   1.0083074      0            
    155000   0.97008586     0.003963538    0.96766064     0            
    156000   1.034914       0.0042284102   1.0323267      0            
    157000   1.0445788      0.0042678983   1.0419674      0            
    158000   0.98673056     0.0040315443   0.98426374     0            
    159000   1.057573       0.0043209895   1.0549291      0            
    160000   0.97645421     0.0039895576   0.97401308     0            
    161000   0.99922169     0.0041741329   0.99840109     0.0016774574 
    162000   1.0500104      0.0042900905   1.0473854      0            
    163000   1.0495967      0.0042884003   1.0469727      0            
    164000   0.93223444     0.0038088862   0.92990386     0            
    165000   1.0077041      0.0041172371   1.0051848      0            
    166000   0.96113364     0.0039269614   0.9587308      0            
    167000   0.89645797     0.0036627121   0.89421683     0            
    168000   1.0057282      0.0041091642   1.0032139      0            
    169000   1.0150074      0.0041470767   1.0124699      0            
    170000   0.87831931     0.0035897917   0.87612442     9.0279613e-07
    171000   0.91457493     0.0037367337   0.91228849     0            
    172000   0.88782449     0.0036274378   0.88560493     0            
    173000   1.0531759      0.0043030241   1.050543       0            
    174000   0.91695026     0.0037464387   0.91465788     0            
    175000   0.93078025     0.0038029447   0.9284533      0            
    176000   1.020291       0.0041686643   1.0177403      0            
    177000   0.95284989     0.003893116    0.95046776     0            
    178000   0.99674349     0.0041924185   0.99667273     0.0024211059 
    179000   0.9505672      0.0038837895   0.94819078     0            
    180000   0.98846596     0.0040386347   0.98599479     0            
    181000   1.0026592      0.004096625    1.0001526      0            
    182000   1.0258119      0.0041912214   1.0232474      0            
    183000   1.1176325      0.0045663782   1.1148384      0            
    184000   1.0290074      0.0042042772   1.0264349      0            
    185000   0.93458763     0.0038185007   0.93225116     0            
    186000   1.0124877      0.0041367817   1.0099565      0            
    187000   1.1187712      0.0045710308   1.1159743      0            
    188000   1.0285139      0.0042022608   1.0259426      0            
    189000   0.97104434     0.0041829061   0.97378794     0.0051712094 
    190000   1.1142881      0.0045527137   1.1115024      0            
    191000   1.0219282      0.0041753534   1.0193734      0            
    192000   1.0886119      0.0044777683   1.0862123      0.00032196271
    193000   1.0333721      0.0042221105   1.0307887      0            
    194000   1.0161517      0.0041517518   1.0136113      0            
    195000   0.98035165     0.0040054815   0.97790077     0            
    196000   0.9764416      0.003989506    0.9740005      0            
    197000   1.0703         0.0043729888   1.0676242      0            
    198000   0.91091811     0.0037789709   0.90950098     0.00086015851
    199000   0.93551773     0.0038223009   0.93317893     0            
    200000   1.004236       0.0041030671   1.0017254      0            
    201000   1.0362275      0.0042337767   1.0336369      0            
    202000   1.0005956      0.0040881934   0.9980941      0            
    203000   0.98754571     0.0040348748   0.98507685     0            
    204000   0.95323931     0.003894707    0.95085621     0            
    205000   0.91799164     0.0037506935   0.91569667     0            
    206000   1.0277069      0.0041989638   1.0251376      0            
    207000   0.98356562     0.0040186131   0.98110671     0            
    208000   0.94283874     0.0038522128   0.94048164     0            
    209000   1.0474388      0.0042795835   1.0448202      0            
    210000   1.0046824      0.0041048912   1.0021707      0            
    211000   0.99273353     0.0040666136   0.99030742     5.5727011e-05
    212000   0.88900462     0.0036322595   0.8867821      0            
    213000   0.96347928     0.0039365451   0.96107058     0            
    214000   0.97933945     0.0040013459   0.9768911      0            
    215000   0.98793253     0.0040364552   0.9854627      0            
    216000   0.98796791     0.0040365998   0.98549799     0            
    217000   0.94655699     0.0038674047   0.9441906      0            
    218000   0.99710697     0.0040739398   0.9946142      0            
    219000   0.97796226     0.0040104196   0.97561683     9.9476176e-05
    220000   1.0822198      0.0044216903   1.0795142      0            
    221000   1.020527       0.0041696283   1.0179757      0            
    222000   1.0159187      0.0041508001   1.0133789      0            
    223000   1.0841924      0.00442975     1.0814819      0            
    224000   0.92597183     0.0037832987   0.9236569      0            
    225000   0.97741377     0.0039934781   0.97497024     0            
    226000   0.99213528     0.0040536267   0.98965494     0            
    227000   1.0632442      0.0043441606   1.0605861      0            
    228000   1.0215891      0.0041739678   1.0190351      0            
    229000   1.0695297      0.0043698418   1.0668559      0            
    230000   1.009272       0.0042051326   1.0081758      0.0014270221 
    231000   0.90094559     0.0036810474   0.89869322     0            
    232000   0.98243865     0.0040140086   0.97998256     0            
    233000   0.92361912     0.0037736861   0.92131007     0            
    234000   1.1060118      0.0045363238   1.1033796      0.00013280851
    235000   1.0083204      0.0041197552   1.0057996      0            
    236000   1.0150364      0.0041471952   1.0124988      0            
    237000   0.99440239     0.0040628895   0.99191638     0            
    238000   1.0381603      0.0042416738   1.0355649      0            
    239000   0.96424771     0.0039396847   0.96183709     0            
    240000   0.99282518     0.0040564454   0.99034311     0            
    241000   1.0921693      0.0044623415   1.0894388      0            
    242000   1.0364937      0.0042348646   1.0339025      0            
    243000   1.0345153      0.0042267813   1.031929       0            
    244000   1.0118361      0.0041341195   1.0093065      0            
    245000   1.113921       0.004551214    1.1111362      0            
    246000   1.0193682      0.0041648937   1.0168197      0            
    247000   1.03902        0.0042451864   1.0364225      0            
    248000   0.95044237     0.0038832794   0.94806626     0            
    249000   0.91228332     0.0037273707   0.91000261     0            
    250000   1.0337427      0.0042236247   1.0311584      0            
    251000   1.0867693      0.0044402786   1.0840524      0            
    252000   1.005589       0.0041085952   1.003075       0            
    253000   0.94683267     0.0038685311   0.94446559     0            
    254000   0.99760411     0.004075971    0.9951101      0            
    255000   1.0387863      0.0042442317   1.0361894      0            
    256000   1.1132653      0.0045485348   1.1104821      0            
    257000   0.9996712      0.0040844166   0.99717203     0            
    258000   0.99646619     0.0040713217   0.99397503     0            
    259000   0.92949052     0.0037976752   0.92716679     0            
    260000   0.98703632     0.0040327935   0.98456873     0            
    261000   0.97187774     0.0039708592   0.96944804     0            
    262000   0.93995201     0.0038404183   0.93760213     0            
    263000   1.0836314      0.0044274576   1.0809223      0            
    264000   0.98290006     0.0040158937   0.98044281     0            
    265000   1.0087323      0.0041214382   1.0062105      0            
    266000   0.90744408     0.0037075987   0.90517547     0            
    267000   0.96467805     0.003941443    0.96226636     0            
    268000   1.0627445      0.0043421192   1.0600877      0            
    269000   0.97698722     0.0039917353   0.97454475     0            
    270000   1.0130445      0.0041390569   1.0105119      0            
    271000   0.97340574     0.0039771022   0.97097222     0            
    272000   0.91966688     0.0037575382   0.91736772     0            
    273000   0.95559574     0.0039043348   0.95320675     0            
    274000   1.0168811      0.0041547322   1.0143389      0            
    275000   0.97137441     0.0039688027   0.96894598     0            
    276000   1.0006005      0.0043618147   1.0050602      0.0069611753 
    277000   0.89368558     0.0036513848   0.89145136     0            
    278000   1.0144954      0.0041449849   1.0119592      0            
    279000   1.0330092      0.0042206275   1.0304266      0            
    280000   0.9546752      0.0039955585   0.95396162     0.0016731086 
    281000   1.0483535      0.0042833209   1.0457326      0            
    282000   1.0022028      0.0040947601   0.99969728     0            
    283000   1.0599323      0.0043402492   1.0573298      4.7359692e-05
    284000   1.0204987      0.0041695128   1.0179475      0            
    285000   1.0576014      0.0043211057   1.0549574      0            
    286000   1.0559052      0.0043141751   1.0532654      0            
    287000   1.0289995      0.0042145264   1.0264803      5.330548e-05 
    288000   1.0210179      0.0041716339   1.0184653      0            
    289000   0.96558089     0.0039451318   0.96316693     0            
    290000   1.0065121      0.0041123667   1.0039958      0            
    291000   0.94030719     0.0038418695   0.93795642     0            
    292000   0.97473205     0.0039825212   0.97229522     0            
    293000   0.98912773     0.0040413385   0.98665491     0            
    294000   1.0335221      0.0042227233   1.0309383      0            
    295000   0.89962824     0.0036756651   0.89737917     0            
    296000   1.0112088      0.0041315566   1.0086808      0            
    297000   1.0514333      0.004295904    1.0488047      0            
    298000   1.0399488      0.0042489812   1.0373489      0            
    299000   1.0402838      0.0043344741   1.0391749      0.001491821  
    300000   1.0340635      0.0043662968   1.033914       0.0024356163 
    301000   1.0398841      0.004248717    1.0372844      0            
    302000   0.93219757     0.0039322449   0.93238416     0.0025170814 
    303000   0.99515999     0.0040659849   0.99267209     0            
    304000   0.99369869     0.0040600144   0.99121445     0            
    305000   0.98261076     0.0040147117   0.98015423     0            
    306000   1.0203077      0.004272211    1.0197406      0.0019836449 
    307000   0.95428928     0.003898997    0.95190356     0            
    308000   0.94586422     0.0038645742   0.94349956     0            
    309000   1.0703008      0.0043729922   1.067625       0            
    310000   0.92826552     0.0037926701   0.92594486     0            
    311000   0.96117676     0.0039809316   0.9595604      0.00078658225
    312000   0.97423713     0.0041224979   0.97482856     0.0030270262 
    313000   0.98495817     0.0040243027   0.98249578     0            
    314000   1.0312585      0.0042134749   1.0286804      0            
    315000   1.0432023      0.0042622743   1.0405943      0            
    316000   0.97487252     0.0039830952   0.97243534     0            
    317000   1.0757144      0.004395111    1.0730252      0            
    318000   1.0373587      0.0042383989   1.0347654      0            
    319000   0.99678018     0.0040734042   0.99428865     4.1274881e-07
    320000   0.99154448     0.0040512128   0.98906562     0            
    321000   1.0541165      0.004306867    1.0514812      0            
    322000   1.0344817      0.0042302658   1.0319033      7.7924184e-06
    323000   0.9290611      0.0037959207   0.92673844     0            
    324000   0.95281629     0.0038929787   0.95043425     0            
    325000   1.0647641      0.0043503704   1.0621022      0            
    326000   1.0116916      0.004133529    1.0091623      0            
    327000   0.93938317     0.0038380942   0.93703472     0            
    328000   0.93584283     0.0038236292   0.93350322     0            
    329000   1.0706966      0.0043746092   1.0680198      0            
    330000   1.0544319      0.0043081556   1.0517958      0            
    331000   1.0932736      0.0045095349   1.0910972      0.00055684102
    332000   0.97555457     0.0039858819   0.97311569     0            
    333000   1.0314251      0.0042141553   1.0288465      0            
    334000   0.94136094     0.0038461749   0.93900754     0            
    335000   0.99883712     0.0040810088   0.99634003     0            
    336000   1.0195442      0.0041656129   1.0169953      0            
    337000   1.1364021      0.0046430664   1.1335611      0            
    338000   0.88383542     0.0036111394   0.88162583     0            
    339000   0.98291551     0.0040159569   0.98045822     0            
    340000   0.98809224     0.0040371078   0.98562201     0            
    341000   1.0049943      0.0041061655   1.0024818      0            
    342000   0.9498671      0.003880929    0.94749243     0            
    343000   1.0054494      0.0041080248   1.0029357      0            
    344000   1.0171855      0.0041559759   1.0146425      0            
    345000   1.0336962      0.0042234347   1.031112       0            
    346000   0.95601133     0.0039060329   0.9536213      0            
    347000   1.0005928      0.004199473    1.0002804      0.0021890643 
    348000   1.0637191      0.0043461009   1.0610598      0            
    349000   0.98783892     0.0040360728   0.98536932     0            
    350000   0.96555271     0.0039479382   0.963144       5.1717925e-06
    351000   0.94192393     0.0038530801   0.93958139     1.2265364e-05
    352000   1.0314963      0.004259865    1.0295291      0.00061158488
    353000   0.95497629     0.003925614    0.95281154     0.0002226921 
    354000   0.87653571     0.0035813145   0.87434437     0            
    355000   0.92350483     0.0040393137   0.9273234      0.0061273328 
    356000   1.0239357      0.0041835555   1.0213758      0            
    357000   1.0821564      0.0044214311   1.079451       0            
    358000   1.0830962      0.0044252709   1.0803884      0            
    359000   1.0308877      0.0042243504   1.0283845      7.4015252e-05
    360000   0.94360177     0.0038553304   0.94124276     0            
    361000   1.0401377      0.0042497528   1.0375373      0            
    362000   0.98682012     0.0040319102   0.98435307     0            
    363000   1.0473218      0.0042791056   1.0447035      0            
    364000   0.96876972     0.0039581606   0.9663478      0            
    365000   1.0188995      0.004162979    1.0163523      0            
    366000   0.99568375     0.0040681248   0.99319454     0            
    367000   0.93678911     0.0038274955   0.93444714     0            
    368000   1.0347316      0.0042276649   1.0321448      0            
    369000   0.99469733     0.0040640946   0.99221058     0            
    370000   1.0581503      0.0043233483   1.0555049      0            
    371000   0.90110243     0.0036816883   0.89884967     0            
    372000   0.87133768     0.0035600766   0.86915934     0            
    373000   1.0354471      0.0042305882   1.0328585      0            
    374000   0.98346987     0.0041357062   0.98336556     0.0023543626 
    375000   1.0087103      0.0041213483   1.0061885      0            
    376000   1.1242733      0.0045935107   1.1214626      0            
    377000   0.96871903     0.0039579535   0.96629724     0            
    378000   1.0269908      0.004196038    1.0244233      0            
    379000   1.0562243      0.0043154791   1.0535838      0            
    380000   1.0366407      0.0042354652   1.0340491      0            
    381000   1.0375839      0.0042393189   1.03499        0            
    382000   0.99662537     0.0040719721   0.9941338      0            
    383000   0.96273093     0.0039334875   0.9603241      0            
    384000   1.0014171      0.0040915498   0.99891352     0            
    385000   0.97955283     0.0040022178   0.97710395     0            
    386000   0.93783981     0.0038317884   0.93549521     0            
    387000   0.96109869     0.0039268186   0.95869595     0            
    388000   1.0429224      0.0042611308   1.0403151      0            
    389000   0.99072871     0.0040478797   0.98825189     0            
    390000   1.0411459      0.0042538722   1.038543       0            
    391000   1.0600649      0.004331171    1.0574148      0            
    392000   1.0624963      0.0043411047   1.05984        0            
    393000   1.1295271      0.0046149767   1.1267033      0            
    394000   1.0014322      0.0040916116   0.99892862     0            
    395000   0.93244061     0.0038150066   0.93012533     1.5830101e-05
    396000   1.0300409      0.0042084998   1.0274658      0            
    397000   1.0436302      0.0042750257   1.0410812      6.0099089e-05
    398000   1.002586       0.0040963256   1.0000795      0            
    399000   1.0047863      0.0041053157   1.0022743      0            
    400000   0.96786871     0.0039544792   0.96544903     0            
    401000   0.97611702     0.0039881799   0.97367673     0            
    402000   0.98127247     0.0040092438   0.97881929     0            
    403000   0.9748209      0.0039828842   0.97238384     0            
    404000   0.93081723     0.0038030958   0.92849019     0            
    405000   0.98101808     0.0040082044   0.97856553     0            
    406000   0.93401196     0.0038161487   0.93167693     0            
    407000   0.97606421     0.0039879641   0.97362405     0            
    408000   1.0334561      0.0042224535   1.0308724      0            
    409000   1.0555057      0.0043125431   1.052867       0            
    410000   1.0982502      0.0045007212   1.0955909      8.6279613e-05
    411000   0.9318089      0.0038071475   0.92947937     0            
    412000   1.0703988      0.0043733926   1.0677228      0            
    413000   1.0417387      0.0042562943   1.0391343      0            
    414000   0.97212039     0.0039718506   0.96969009     0            
    415000   1.0167146      0.0041540519   1.0141728      0            
    416000   1.0082279      0.0041193774   1.0057074      0            
    417000   1.0770863      0.0044007162   1.0743936      0            
    418000   0.98338833     0.0040178887   0.98092986     0            
    419000   1.0491054      0.0042863928   1.0464826      0            
    420000   0.99498899     0.0040652862   0.99250152     0            
    421000   0.98859851     0.0040391762   0.98612701     0            
    422000   1.0041451      0.0041358824   1.0020128      0.00037811224
    423000   1.0558362      0.0043382106   1.0534271      0.00023044669
    424000   0.98590008     0.0040281511   0.98343533     0            
    425000   0.93501512     0.0038202474   0.93267758     0            
    426000   1.0401077      0.0042496304   1.0375074      0            
    427000   0.96456475     0.0039409801   0.96215333     0            
    428000   0.98616491     0.0040292331   0.9836995      0            
    429000   0.98841065     0.0040384087   0.98593962     0            
    430000   0.9619217      0.0039301812   0.95951689     0            
    431000   0.92980332     0.0037989532   0.92747881     0            
    432000   0.93498618     0.0038201291   0.93264871     0            
    433000   1.0648864      0.0043508702   1.0622242      0            
    434000   1.0073945      0.0041159721   1.004876       0            
    435000   0.98507234     0.0040247692   0.98260966     0            
    436000   0.94687671     0.003868711    0.94450952     0            
    437000   1.0487145      0.0042847957   1.0460927      0            
    438000   0.97349538     0.0039774685   0.97106164     0            
    439000   1.0047676      0.0041052392   1.0022557      0            
    440000   1.0517637      0.0044442591   1.0519235      0.0027891561 
    441000   1.0155642      0.0041582508   1.0130665      4.1193437e-05
    442000   0.97800799     0.0039959059   0.97556297     0            
    443000   1.0333305      0.0042219404   1.0307472      0            
    444000   0.99946607     0.0040835785   0.99696741     0            
    445000   1.0078485      0.004117827    1.0053289      0            
    446000   0.92210635     0.0037675052   0.91980109     0            
    447000   0.97697115     0.0039916697   0.97452873     0            
    448000   1.0759911      0.0043962414   1.0733011      0            
    449000   1.1420646      0.0046662017   1.1392094      0            
    450000   1.0877386      0.00463463     1.0894414      0.0044220899 
    451000   0.94784912     0.003872684    0.9454795      0            
    452000   1.023475       0.004181673    1.0209163      0            
    453000   0.94329544     0.0038540788   0.9409372      0            
    454000   1.1600082      0.004739515    1.1571082      0            
    455000   1.0200696      0.0041677597   1.0175195      0            
    456000   0.99260709     0.0040555543   0.99012557     0            
    457000   0.98863144     0.0040393108   0.98615987     0            
    458000   0.99775175     0.0040772278   0.99525764     2.7709831e-07
    459000   1.0550137      0.0043203412   1.0524252      4.9021675e-05
    460000   0.92043412     0.0037625375   0.91813521     2.1724487e-06
    461000   1.0960506      0.0044781996   1.0933104      0            
    462000   1.0662413      0.004356406    1.0635757      0            
    463000   1.0059597      0.0041382851   1.0037368      0.00029202139
    464000   1.0824989      0.0044228308   1.0797927      0            
    465000   1.0822351      0.0044217529   1.0795295      0            
    466000   1.105598       0.0045172082   1.102834       0            
    467000   1.0382201      0.0042419182   1.0356245      0            
    468000   0.99836561     0.0040790823   0.99586969     0            
    469000   1.01611        0.0041515818   1.0135698      0            
    470000   0.96708222     0.0039512658   0.96466451     0            
    471000   1.0117698      0.0041338485   1.0092404      0            
    472000   0.93807133     0.0038327343   0.93572615     0            
    473000   1.0182414      0.00416029     1.0156958      0            
    474000   0.97335973     0.0039769142   0.97092633     0            
    475000   1.0124418      0.0041365941   1.0099107      0            
    476000   1.0169053      0.0041548309   1.014363       0            
    477000   1.0333048      0.0042218354   1.0307215      0            
    478000   1.0911972      0.0044863957   1.0887587      0.00028955814
    479000   0.99369825     0.0040600126   0.991214       0            
    480000   0.91370407     0.0037331755   0.91141981     0            
    481000   1.0253335      0.0041892666   1.0227702      0            
    482000   1.0119419      0.0041571278   1.0096163      0.00020417094
    483000   0.95654546     0.0039082152   0.9541541      0            
    484000   0.99055743     0.0040471799   0.98808104     0            
    485000   1.0482172      0.0042827637   1.0455966      0            
    486000   0.99177374     0.0040521495   0.98929431     0            
    487000   1.1049225      0.0045144482   1.1021602      0            
    488000   1.0097516      0.0041256028   1.0072272      0            
    489000   1.024104       0.0041842432   1.0215437      0            
    490000   0.90060643     0.0036796617   0.89835492     0            
    491000   0.97012149     0.0039636836   0.96769618     0            
    492000   0.98648131     0.0040305259   0.98401511     0            
    493000   0.91798612     0.003750671    0.91569115     0            
    494000   1.0794403      0.004410334    1.0767417      0            
    495000   0.98169396     0.0040109659   0.97923973     0            
    496000   0.9636389      0.0039371973   0.96122981     0            
    497000   1.0600669      0.0043311789   1.0574167      0            
    498000   1.0559139      0.0043142108   1.0532741      0            
    499000   0.96483433     0.0039420815   0.96242224     0            
    500000   0.98826043     0.0040377949   0.98578978     0            
    501000   1.0157476      0.0041631139   1.0132889      8.0602035e-05
    502000   0.98835912     0.0040381982   0.98588822     0            
    503000   0.9393914      0.0038381278   0.93704293     0            
    504000   0.99666085     0.004072117    0.99416919     0            
    505000   1.0471319      0.0042783297   1.0445141      0            
    506000   1.1145901      0.0045539478   1.1118037      0            
    507000   0.94932458     0.0038787124   0.94695126     0            
    508000   1.0258653      0.0041914395   1.0233007      0            
    509000   0.95949517     0.003920267    0.95709644     0            
    510000   1.0288163      0.0042034963   1.0262442      0            
    511000   0.98612843     0.0040290841   0.98366311     0            
    512000   1.0169764      0.0041551215   1.014434       0            
    513000   0.97007017     0.0039634739   0.96764499     0            
    514000   0.96830517     0.0040502425   0.9676234      0.0017389946 
    515000   1.0425933      0.0044533808   1.0445038      0.0045169744 
    516000   0.98668596     0.004031362    0.98421924     0            
    517000   0.9368402      0.0038277042   0.9344981      0            
    518000   1.0532881      0.0043034825   1.0506549      0            
    519000   0.99946742     0.004083584    0.99696876     0            
    520000   1.0673814      0.0043610642   1.0647129      0            
    521000   0.98960637     0.0040432941   0.98713235     0            
    522000   0.99437106     0.0040627615   0.99188513     0            
    523000   1.1031325      0.0045071346   1.1003747      0            
    524000   1.1024352      0.0045042857   1.0996791      0            
    525000   1.0531563      0.0043029437   1.0505234      0            
    526000   0.95369024     0.0039029471   0.95132862     2.2603736e-05
    527000   0.96927379     0.0039602201   0.96685061     0            
    528000   0.93739339     0.0038299644   0.93504991     0            
    529000   1.0262821      0.0041931424   1.0237164      0            
    530000   0.99766989     0.0040762397   0.99517572     0            
    531000   1.0133177      0.004140173    1.0107844      0            
    532000   1.0215233      0.0041736992   1.0189695      0            
    533000   1.0149146      0.0041466976   1.0123773      0            
    534000   0.85300907     0.0034851903   0.85087655     0            
    535000   1.0732489      0.0043850375   1.0705658      0            
    536000   1.0568092      0.0043178688   1.0541672      0            
    537000   0.9960518      0.0040696286   0.99356167     0            
    538000   1.047756       0.0042808795   1.0451366      0            
    539000   1.0008593      0.0042873171   1.0022806      0.0039235024 
    540000   0.97766044     0.0039944859   0.97521629     0            
    541000   0.99930092     0.0041013335   0.99694859     0.00014592021
    542000   0.99965209     0.0040843385   0.99715296     0            
    543000   0.98850308     0.0040387863   0.98603182     0            
    544000   1.0247552      0.0041869036   1.0221933      0            
    545000   0.97983414     0.0040033671   0.97738455     0            
    546000   0.98745964     0.0040345231   0.984991       0            
    547000   1.0633483      0.0043445861   1.06069        0            
    548000   1.0907331      0.0044564737   1.0880063      0            
    549000   0.99442959     0.0040630006   0.99194352     0            
    550000   1.0074967      0.0041447457   1.0052729      0.000295016  
    551000   0.94546801     0.0038629554   0.94310434     0            
    552000   0.87443003     0.0035727112   0.87224396     0            
    553000   0.88256043     0.0036059301   0.88035403     0            
    554000   1.0363577      0.0042343087   1.0337668      0            
    555000   1.0045912      0.0041045187   1.0020798      0            
    556000   0.9439313      0.0038566767   0.94157147     0            
    557000   1.0520547      0.0043023244   1.0494335      8.8851921e-06
    558000   0.92493406     0.0037790586   0.92262173     0            
    559000   0.99855783     0.0040798676   0.99606144     0            
    560000   1.1174123      0.0045654784   1.1146187      0            
    561000   1.0117202      0.0041336461   1.0091909      0            
    562000   0.93009387     0.0038152212   0.92787256     0.00010392486
    563000   0.97947548     0.0040019017   0.97702679     0            
    564000   1.0103797      0.0041281688   1.0078537      0            
    565000   0.98094192     0.004124805    0.98082856     0.0023389933 
    566000   1.1291508      0.004613439    1.1263279      0            
    567000   0.96708507     0.0039512775   0.96466735     0            
    568000   1.043291       0.0042626366   1.0406828      0            
    569000   0.90910539     0.0037143864   0.90683263     0            
    570000   1.0172845      0.0042593844   1.0167126      0.0019712856 
    571000   0.89455368     0.0036549316   0.8923173      0            
    572000   0.97602992     0.003987824    0.97358984     0            
    573000   1.0968474      0.0044814551   1.0941052      0            
    574000   0.96590028     0.0039464367   0.96348553     0            
    575000   1.0656194      0.0043538651   1.0629553      0            
    576000   1.0813515      0.0044384906   1.0788202      0.00017207487
    577000   1.0107778      0.0041297956   1.0082509      0            
    578000   0.97797532     0.0039957724   0.97553038     0            
    579000   0.95421866     0.0038987085   0.95183312     0            
    580000   1.0571947      0.0043194438   1.0545517      0            
    581000   1.0330201      0.004220672    1.0304375      0            
    582000   0.96042426     0.0040282182   0.96002449     0.0020012932 
    583000   0.96793629     0.0039547554   0.96551645     0            
    584000   0.93221673     0.0038088138   0.92988619     0            
    585000   0.97565549     0.0039862942   0.97321635     0            
    586000   0.90155467     0.003683536    0.89930079     0            
    587000   1.029796       0.0042078859   1.0272216      9.7784372e-08
    588000   0.94109483     0.0038450876   0.93874209     0            
    589000   1.0471614      0.0042784502   1.0445435      0            
    590000   1.0242251      0.0041847381   1.0216646      0            
    591000   1.031735       0.0042154216   1.0291557      0            
    592000   1.0675509      0.0044296109   1.0659835      0.0011015324 
    593000   1.0473097      0.004296756    1.0448278      0.0001363536 
    594000   1.1082031      0.0045278519   1.1054326      0            
    595000   1.0336104      0.0042230842   1.0310264      0            
    596000   1.0103935      0.0041282254   1.0078675      0            
    597000   0.97753307     0.0039939655   0.97508924     0            
    598000   1.0295518      0.0042065017   1.0269779      0            
    599000   0.95123398     0.0038865137   0.94885589     0            
    600000   0.94524564     0.0038680822   0.94290282     2.0300485e-05
    601000   0.94030353     0.0038418545   0.93795277     0            
    602000   0.88913645     0.0036327982   0.88691361     0            
    603000   0.93715114     0.0038289746   0.93480826     0            
    604000   0.98191258     0.0040118591   0.9794578      0            
    605000   0.96041749     0.0039240354   0.95801644     0            
    606000   1.0590151      0.0043268817   1.0563676      0            
    607000   1.0299261      0.004208031    1.0273513      0            
    608000   0.9343307      0.003817451    0.93199488     0            
    609000   0.89985612     0.0036765962   0.89760648     0            
    610000   1.0531073      0.0043364666   1.0508622      0.00038769072
    611000   0.96337323     0.0039522918   0.96108196     0.00011716081
    612000   1.0285243      0.0042401964   1.0262637      0.00031067485
    613000   1.0253115      0.0041891768   1.0227482      0            
    614000   0.91775847     0.0037497408   0.91546407     0            
    615000   0.98325608     0.0040173484   0.98079794     0            
    616000   0.98628472     0.0040297227   0.98381901     0            
    617000   0.96177132     0.0039429005   0.95945097     8.4077877e-05
    618000   1.0327292      0.0042194837   1.0301474      0            
    619000   1.0492187      0.0042868556   1.0465956      0            
    620000   1.0585914      0.0043251506   1.055945       0            
    621000   1.0756243      0.0043947426   1.0729352      0            
    622000   1.0274028      0.0042062697   1.0248727      3.8318665e-05
    623000   0.96267225     0.0040633336   0.96296228     0.002696711  
    624000   1.1156631      0.0045871614   1.1131768      0.00030289314
    625000   0.99461418     0.0040637548   0.99212764     0            
    626000   1.011662       0.004133408    1.0091328      0            
    627000   0.98254975     0.0040144625   0.98009338     0            
    628000   0.99489156     0.0040648882   0.99240434     0            
    629000   0.95042978     0.0038948942   0.94812032     6.6613398e-05
    630000   0.96443802     0.0039404623   0.96202693     0            
    631000   1.0345356      0.0042462271   1.0321077      0.00015846637
    632000   1.0001663      0.0040864393   0.99766584     0            
    633000   0.95695121     0.003909873    0.95455883     0            
    634000   1.0675625      0.0043618042   1.0648936      0            
    635000   1.0362151      0.0042337264   1.0336246      0            
    636000   1.0561665      0.0043334192   1.0536686      0.00014257665
    637000   1.0685194      0.0043657139   1.0658481      0            
    638000   0.98917484     0.004041531    0.98670191     0            
    639000   0.98343094     0.004039474    0.98115953     0.00018717171
    640000   1.0486551      0.004284553    1.0460334      0            
    641000   1.0261746      0.0041927032   1.0236092      0            
    642000   1.0396144      0.0043298577   1.0384609      0.0014454839 
    643000   0.94363142     0.0038554515   0.94127234     0            
    644000   0.96318981     0.0039353624   0.96078184     0            
    645000   0.99763776     0.0041057159   0.99545963     0.0003159633 
    646000   0.94180786     0.0038480009   0.93945334     0            
    647000   1.048657       0.0042845607   1.0460353      0            
    648000   1.0212947      0.0041727651   1.0187415      0            
    649000   0.97856617     0.0039981865   0.97611976     0            
    650000   0.96046488     0.003924229    0.95806372     0            
    651000   1.0014847      0.0040918262   0.99898101     0            
    652000   0.92340855     0.0037728257   0.92110003     0            
    653000   1.0499043      0.0042896569   1.0472795      0            
    654000   0.96884373     0.0041346597   0.97042677     0.0040051523 
    655000   0.94307062     0.0038531602   0.94071295     0            
    656000   1.0346943      0.0042275125   1.0321075      0            
    657000   0.95418889     0.0038985868   0.95180341     0            
    658000   0.99106962     0.0040492726   0.98859194     0            
    659000   0.91924169     0.0037558009   0.91694359     0            
    660000   1.0433155      0.0042700124   1.0407358      2.860847e-05 
    661000   0.96725526     0.0039519729   0.96483712     0            
    662000   1.0324962      0.0042185315   1.0299149      0            
    663000   1.0142406      0.0041439435   1.011705       0            
    664000   0.9873995      0.0040342774   0.984931       0            
    665000   0.97058765     0.0039655882   0.96816118     0            
    666000   0.98994388     0.0040446731   0.98746902     0            
    667000   1.0105946      0.004129047    1.0080681      0            
    668000   1.1033468      0.0045080103   1.1005884      0            
    669000   0.93536256     0.0039612332   0.93598324     0.0029590908 
    670000   0.99397274     0.0040611341   0.99148781     0            
    671000   1.0559771      0.0043144689   1.0533371      0            
    672000   0.93498112     0.0038201085   0.93264367     0            
    673000   1.1369426      0.0046762616   1.1344398      0.0003395376 
    674000   1.0007061      0.0040886451   0.99820436     0            
    675000   0.96383568     0.0039380012   0.96142609     0            
    676000   1.0352931      0.0042365712   1.0327289      2.4016725e-05
    677000   0.94138652     0.0038462794   0.93903305     0            
    678000   1.0612743      0.0043527997   1.0587445      0.00012346125
    679000   1.0204724      0.0041694052   1.0179212      0            
    680000   0.94625304     0.0038661628   0.94388741     0            
    681000   0.91446773     0.0037362957   0.91218156     0            
    682000   1.0757126      0.0043951037   1.0730234      0            
    683000   0.97711784     0.003992269    0.97467504     0            
    684000   0.9881047      0.0040371587   0.98563444     0            
    685000   0.96577366     0.0039459194   0.96335923     0            
    686000   1.1086324      0.0045296058   1.1058608      0            
    687000   0.96989793     0.0039627702   0.96747319     0            
    688000   1.0227084      0.0041870457   1.0201896      3.7967502e-05
    689000   1.0484617      0.0042837627   1.0458405      0            
    690000   0.9760272      0.004069183    0.97501123     0.001424098  
    691000   0.94300995     0.0038529123   0.94065243     0            
    692000   0.99522121     0.004066235    0.99273316     0            
    693000   1.0997714      0.0044934019   1.0970219      0            
    694000   1.0511916      0.0042949166   1.0485636      0            
    695000   1.0780386      0.004404607    1.0753435      0            
    696000   1.0197298      0.0041663712   1.0171805      0            
    697000   0.94846099     0.003875184    0.94608983     0            
    698000   1.0151717      0.004147748    1.0126338      0            
    699000   1.0592638      0.0043278977   1.0566157      0            
    700000   1.0011165      0.0040903219   0.99861374     0            
    701000   0.95495825     0.0039017302   0.95257086     0            
    702000   0.99762748     0.0040760665   0.99513341     0            
    703000   1.0339955      0.0042246573   1.0314105      0            
    704000   0.99208137     0.0040534064   0.98960117     0            
    705000   0.98246035     0.0040140972   0.9800042      0            
    706000   1.0296539      0.0042113124   1.0270909      1.123041e-05 
    707000   0.98203343     0.0040212694   0.97961969     4.1338374e-05
    708000   1.0284164      0.0042018625   1.0258453      0            
    709000   0.96230277     0.0039317382   0.95989702     0            
    710000   0.96829484     0.0039562203   0.96587411     0            
    711000   1.0406252      0.0042517448   1.0380236      0            
    712000   0.9564735      0.0039079212   0.95408231     0            
    713000   0.92757101     0.0037898325   0.92525208     0            
    714000   1.0167649      0.0041542575   1.014223       0            
    715000   1.0327006      0.0042193666   1.0301188      0            
    716000   0.96632117     0.0039481564   0.96390537     0            
    717000   0.96966755     0.0039618289   0.96724338     0            
    718000   1.0389887      0.0042450584   1.0363912      0            
    719000   1.0574382      0.0043204387   1.0547946      0            
    720000   1.0268477      0.0041954533   1.0242806      0            
    721000   1.0014882      0.0040918403   0.99898445     0            
    722000   0.95331175     0.003895003    0.95092847     0            
    723000   1.1174163      0.0045654947   1.1146227      0            
    724000   0.91619967     0.003743372    0.91390917     0            
    725000   0.97387562     0.0039790221   0.97144093     0            
    726000   1.0028415      0.0040973696   1.0003344      0            
    727000   0.99939207     0.0040832761   0.99689359     0            
    728000   1.0264574      0.0041938586   1.0238912      0            
    729000   1.0123584      0.0041362535   1.0098275      0            
    730000   0.99386039     0.004060675    0.99137574     0            
    731000   1.0023867      0.0040955116   0.99988077     0            
    732000   1.0587679      0.0043316592   1.0561397      1.8787175e-05
    733000   1.0469215      0.0042774701   1.0443042      0            
    734000   1.0437741      0.0042646104   1.0411647      0            
    735000   0.99004293     0.0040450778   0.98756783     0            
    736000   1.0000044      0.0040857781   0.99750441     0            
    737000   1.0787946      0.004407696    1.0760976      0            
    738000   1.0054914      0.0041408656   1.0033466      0.00036893109
    739000   0.95482631     0.0039011911   0.95243924     0            
    740000   1.0013367      0.0040912214   0.99883334     0            
    741000   0.94846313     0.0038751927   0.94609197     0            
    742000   0.95800422     0.0039141753   0.95560921     0            
    743000   1.0592578      0.0043278733   1.0566097      0            
    744000   0.90033578     0.0036785559   0.89808494     0            
    745000   0.99605291     0.0040696332   0.99356278     0            
    746000   1.0359786      0.0042327599   1.0333887      0            
    747000   1.0120716      0.0041350818   1.0095415      0            
    748000   1.0070237      0.0041144573   1.0045062      0            
    749000   0.94165677     0.0038473836   0.93930263     0            
    750000   1.0484343      0.0042836508   1.0458132      0            
    751000   0.99077714     0.0040480776   0.9883002      0            
    752000   1.0226042      0.0041781154   1.0200477      0            
    753000   0.96933314     0.0039604626   0.96690981     0            
    754000   1.0793421      0.0044099326   1.0766437      0            
    755000   0.96871046     0.0039579184   0.96628868     0            
    756000   1.0735132      0.0043861174   1.0708294      0            
    757000   0.94625877     0.0038661862   0.94389312     0            
    758000   0.9916001      0.00405144     0.9891211      0            
    759000   0.96244908     0.0040343728   0.96198909     0.0019461386 
    760000   0.95739093     0.0039414667   0.95531663     0.00031917428
    761000   1.018404       0.0041609545   1.015858       0            
    762000   0.95735328     0.0039115157   0.9549599      0            
    763000   0.98592668     0.0040282598   0.98346186     0            
    764000   0.91749618     0.0037486692   0.91520244     0            
    765000   0.92985477     0.0037991634   0.92753013     0            
    766000   1.0550905      0.0043450307   1.0528487      0.0003959904 
    767000   1.0093974      0.0041241556   1.0068739      0            
    768000   0.96201134     0.0039305474   0.95960631     0            
    769000   1.0034416      0.0040998215   1.000933       0            
    770000   1.1409778      0.004776589    1.1404085      0.0022832047 
    771000   1.0606679      0.0043336343   1.0580162      0            
    772000   1.0003168      0.0040870544   0.99781602     0            
    773000   0.98099639     0.0040081158   0.9785439      0            
    774000   1.0436471      0.0042640915   1.041038       0            
    775000   1.0164588      0.0041530067   1.0139177      0            
    776000   1.0313757      0.0042139538   1.0287973      0            
    777000   0.97574196     0.0039866475   0.97330261     0            
    778000   0.9663128      0.0039481222   0.96389702     0            
    779000   0.91526983     0.0037395729   0.91298166     0            
    780000   0.90852098     0.0037119987   0.90624968     0            
    781000   0.97597502     0.0039875997   0.97353508     0            
    782000   1.0296524      0.0042069125   1.0270782      0            
    783000   1.0163218      0.0041711806   1.013931       0.00014996569
    784000   1.0662548      0.0043564611   1.0635891      0            
    785000   1.0104723      0.0041285475   1.0079462      0            
    786000   0.96812507     0.0039555267   0.96570475     0            
    787000   0.95423566     0.0038987779   0.95185007     0            
    788000   1.0784645      0.0044063472   1.0757684      0            
    789000   0.95230887     0.0038909055   0.9499281      0            
    790000   1.0027917      0.0040971661   1.0002847      0            
    791000   0.94839706     0.0038749228   0.94602607     0            
    792000   0.93631046     0.0038255398   0.93396969     0            
    793000   1.0010225      0.0040899375   0.9985199      0            
    794000   1.0109216      0.0041337393   1.0084011      6.7413642e-06
    795000   0.94098126     0.0038446236   0.93862881     0            
    796000   1.0577589      0.0043217489   1.0551145      0            
    797000   1.0619562      0.004338898    1.0593013      0            
    798000   1.054941       0.0043102358   1.0523037      0            
    799000   0.92977722     0.0037988466   0.92745277     0            
    800000   0.90379672     0.0036926965   0.90153723     0            
    801000   0.94454569     0.003859187    0.94218432     0            
    802000   1.003422       0.0041051121   1.0009298      1.6349949e-05
    803000   0.91108169     0.0037224611   0.90880399     0            
    804000   1.0408043      0.0042524766   1.0382023      0            
    805000   1.0693646      0.0043691673   1.0666912      0            
    806000   1.0289367      0.0042084958   1.0263761      1.178239e-05 
    807000   0.99396551     0.0040611045   0.9914806      0            
    808000   0.98894355     0.004040586    0.98647119     0            
    809000   0.96240023     0.0039321364   0.95999423     0            
    810000   1.0109576      0.0041305301   1.0084302      0            
    811000   0.96849292     0.0039570296   0.96607169     0            
    812000   0.99528118     0.00406648     0.99279297     0            
    813000   0.92776668     0.003790632    0.92544727     0            
    814000   1.0408871      0.004252815    1.0382849      0            
    815000   1.0110529      0.0041309196   1.0085253      0            
    816000   0.96558528     0.0039451497   0.96317132     0            
    817000   1.0173376      0.0041565973   1.0147943      0            
    818000   0.95691319     0.0039097176   0.9545209      0            
    819000   0.8941128      0.0036531303   0.89187752     0            
    820000   0.96387154     0.0039381478   0.96146186     0            
    821000   1.0197652      0.0041665158   1.0172158      0            
    822000   0.99366336     0.00405987     0.9911792      0            
    823000   0.96670375     0.0039497195   0.964287       0            
    824000   0.97665736     0.0039903876   0.97421571     0            
    825000   0.99541083     0.0040670098   0.9929223      0            
    826000   0.98438819     0.0040411161   0.98208269     0.00015546663
    827000   1.0085488      0.0041206884   1.0060274      0            
    828000   1.0035058      0.0041000839   1.0009971      0            
    829000   1.0818704      0.004420263    1.0791658      0            
    830000   0.932527       0.0038100815   0.93019568     0            
    831000   1.0669974      0.0043594954   1.0643299      0            
    832000   1.0043495      0.0042152024   1.003616       0.0017773684 
    833000   1.1088429      0.0045304662   1.1060708      0            
    834000   0.93162305     0.0038063882   0.92929399     0            
    835000   0.97609155     0.0039880758   0.97365132     0            
    836000   1.0738598      0.004413012    1.0713751      0.00019998029
    837000   0.9845012      0.0040224356   0.98203994     0            
    838000   1.0421686      0.0042580508   1.0395632      0            
    839000   0.94218772     0.0038495529   0.93983225     0            
    840000   1.0554462      0.0043122998   1.0528076      0            
    841000   0.97019997     0.0040040888   0.96828063     0.00050615273
    842000   1.0287105      0.0042243092   1.0263235      0.00018478415
    843000   1.0488594      0.0042853878   1.0462373      0            
    844000   0.97902671     0.0040000682   0.97657915     0            
    845000   0.96948767     0.0039610939   0.96706395     0            
    846000   0.97287851     0.0039749481   0.97044631     0            
    847000   1.008954       0.0041454213   1.0066432      0.0002116359 
    848000   0.96065123     0.0039360116   0.95830988     6.0274172e-05
    849000   1.0364056      0.0042345045   1.0338146      0            
    850000   0.87670544     0.003582008    0.87451367     0            
    851000   0.95581637     0.0039052363   0.95342683     0            
    852000   0.90806865     0.0037101506   0.90579848     0            
    853000   1.0100907      0.0041269883   1.0075655      0            
    854000   1.0353456      0.0042456187   1.0328655      0.00010824722
    855000   1.0528179      0.0043015614   1.0501859      0            
    856000   0.96358002     0.0039369567   0.96117107     0            
    857000   0.9689103      0.003958735    0.96648803     0            
    858000   0.90452995     0.0036956923   0.90226862     0            
    859000   1.0517343      0.0042971341   1.049105       0            
    860000   1.0739511      0.0043879063   1.0712662      0            
    861000   0.91174705     0.0037251796   0.90946769     0            
    862000   1.0086575      0.0041211326   1.0061359      0            
    863000   0.9162581      0.0037436107   0.91396746     0            
    864000   1.0244055      0.004185475    1.0218445      0            
    865000   1.0277699      0.0041992211   1.0252005      0            
    866000   0.98525811     0.0040255282   0.98279497     0            
    867000   0.92253649     0.0037692627   0.92023015     0            
    868000   0.99811639     0.004078064    0.9956211      0            
    869000   0.97232165     0.0039726729   0.96989085     0            
    870000   0.95234647     0.0038910591   0.94996561     0            
    871000   0.97318003     0.00397618     0.97074708     0            
    872000   1.0446773      0.0042683008   1.0420656      0            
    873000   1.0018339      0.0041222603   0.99963522     0.00030586275
    874000   1.1456243      0.0046807458   1.1427602      0            
    875000   0.95672383     0.0039089439   0.95433202     0            
    876000   1.0626191      0.0043416066   1.0599625      0            
    877000   0.98069864     0.0040068993   0.9782469      0            
    878000   0.99321088     0.0040580213   0.99072785     0            
    879000   1.0626993      0.0043419342   1.0600425      0            
    880000   0.92814124     0.0037921623   0.92582089     0            
    881000   1.0492518      0.0042869909   1.0466286      0            
    882000   1.0386613      0.0042437206   1.0360646      0            
    883000   0.98323549     0.0040172642   0.9807774      0            
    884000   0.95827563     0.0039152842   0.95587994     0            
    885000   1.0294301      0.0042060041   1.0268565      0            
    886000   1.0415771      0.0043622282   1.0410383      0.0020651367 
    887000   1.0451806      0.0042703571   1.0425677      0            
    888000   0.96914041     0.0040401131   0.96811888     0.0014013189 
    889000   0.99272594     0.0040560399   0.99024413     0            
    890000   0.96590038     0.0039464372   0.96348563     0            
    891000   0.98795649     0.0040365531   0.9854866      0            
    892000   1.0552722      0.0043115891   1.0526341      0            
    893000   0.99813924     0.0040781574   0.99564389     0            
    894000   1.0205477      0.0041697131   1.0179964      0            
    895000   1.0062544      0.0041113139   1.0037387      0            
    896000   1.1372907      0.0046466969   1.1344475      0            
    897000   1.1018519      0.0045019023   1.0990972      0            
    898000   1.0654803      0.0043532966   1.0628166      0            
    899000   0.90316846     0.0036901296   0.90091054     0            
    900000   0.92564938     0.0037898071   0.92336792     3.2665745e-05
    901000   1.030062       0.0042085862   1.0274869      0            
    902000   0.94915131     0.0038780045   0.94677844     0            
    903000   1.0126416      0.0041374106   1.01011        0            
    904000   0.99489572     0.0040649051   0.99240848     0            
    905000   1.0054482      0.0041080202   1.0029346      0            
    906000   0.98364154     0.0040189233   0.98118244     0            
    907000   1.0316246      0.0042149707   1.0290456      0            
    908000   0.94585556     0.0038645388   0.94349092     0            
    909000   1.0117478      0.0041337588   1.0092184      0            
    910000   0.99000019     0.0040449032   0.98752519     0            
    911000   1.0707519      0.0043748354   1.068075       0            
    912000   1.0050294      0.004106309    1.0025169      0            
    913000   1.082721       0.0044237383   1.0800142      0            
    914000   1.0342312      0.0042256206   1.0316457      0            
    915000   1.1131605      0.0045481065   1.1103776      0            
    916000   0.98287142     0.0040157767   0.98041424     0            
    917000   1.018742       0.0041623355   1.0161952      0            
    918000   0.91597165     0.0037424403   0.91368172     0            
    919000   1.0000575      0.004085995    0.99755737     0            
    920000   1.0495666      0.0042882773   1.0469427      0            
    921000   0.95979742     0.0039215019   0.95739793     0            
    922000   1.0214485      0.0041733935   1.0188949      0            
    923000   1.0292865      0.0042054177   1.0267133      0            
    924000   0.91891727     0.0037544754   0.91661998     0            
    925000   1.0608627      0.0043344302   1.0582105      0            
    926000   0.98742212     0.0040497645   0.98506121     0.00010764698
    927000   1.0128092      0.0041380954   1.0102772      0            
    928000   0.94539255     0.0038626471   0.94302907     0            
    929000   0.95653088     0.0039081556   0.95413955     0            
    930000   1.0093635      0.0041240169   1.0068401      0            
    931000   0.94506166     0.0038612951   0.94269901     0            
    932000   0.98324531     0.0040173044   0.9807872      0            
    933000   0.97288073     0.0040977353   0.97294576     0.0024972366 
    934000   0.91375834     0.0037333973   0.91147394     0            
    935000   1.0289748      0.0042041441   1.0264024      0            
    936000   1.001631       0.0040924239   0.99912694     0            
    937000   1.0290877      0.0042046056   1.026515       0            
    938000   0.9323555      0.0038093808   0.93002461     0            
    939000   1.0371318      0.0042374715   1.0345389      0            
    940000   0.95970266     0.0039211147   0.9573034      0            
    941000   1.03622        0.0042337462   1.0336294      0            
    942000   0.97257085     0.0039736911   0.97013942     0            
    943000   0.90132994     0.0036826178   0.89907661     0            
    944000   1.0488167      0.0042852134   1.0461947      0            
    945000   1.0393788      0.0042466522   1.0367803      0            
    946000   0.97573026     0.0039865997   0.97329093     0            
    947000   0.98002758     0.0040041575   0.97757751     0            
    948000   0.9760723      0.004058959    0.97480626     0.0011741501 
    949000   1.0717343      0.004378849    1.0690549      0            
    950000   1.0153117      0.0041483201   1.0127735      0            
    951000   0.9164555      0.0037444172   0.91416436     0            
    952000   1.0575634      0.0043209501   1.0549194      0            
    953000   1.0157578      0.0041501425   1.0132184      0            
    954000   1.0203636      0.0041689607   1.0178127      0            
    955000   1.0426958      0.0042602046   1.040089       0            
    956000   1.1120676      0.0045436412   1.1092874      0            
    957000   0.98704313     0.0041334379   0.98648484     0.0019093135 
    958000   1.0360107      0.0042328913   1.0334207      0            
    959000   1.0399754      0.004423028    1.0413148      0.0039393444 
    960000   1.0109182      0.0042929704   1.0120024      0.0036114848 
    961000   1.0390051      0.0042750924   1.0367296      0.0003220589 
    962000   0.93684615     0.0038277285   0.93450403     0            
    963000   0.96945519     0.0039609612   0.96703155     0            
    964000   1.0125758      0.0041371416   1.0100443      0            
    965000   0.96784513     0.0039543829   0.96542551     0            
    966000   1.0167682      0.0041542708   1.0142263      0            
    967000   0.99253326     0.0040552527   0.99005193     0            
    968000   1.0368303      0.0042362399   1.0342383      0            
    969000   1.0573905      0.0043202437   1.054747       0            
    970000   0.97577226     0.0039867712   0.97333282     0            
    971000   0.99444425     0.0040630606   0.99195814     0            
    972000   1.0301001      0.0042087417   1.0275248      0            
    973000   1.0024391      0.0040957257   0.99993303     0            
    974000   1.1065263      0.004521001    1.10376        0            
    975000   1.0042994      0.0041898906   1.003341       0.0015523268 
    976000   0.96407238     0.0039389684   0.9616622      0            
    977000   1.0414298      0.0042550323   1.0388263      0            
    978000   1.0214539      0.0041734153   1.0189002      0            
    979000   0.91087896     0.0037216328   0.90860176     0            
    980000   1.0251256      0.0041884172   1.0225628      0            
    981000   0.99375414     0.0040602409   0.99126975     0            
    982000   1.0141278      0.0041434829   1.0115925      0            
    983000   0.92493749     0.0038490037   0.9237751      0.0011499554 
    984000   0.89183068     0.0036438061   0.8896011      0            
    985000   0.95842174     0.0039158812   0.95602569     0            
    986000   0.96592492     0.0039696839   0.96372278     0.00021267119
    987000   0.90822897     0.0037108056   0.90595839     0            
    988000   0.92132975     0.0037643322   0.91902642     0            
    989000   0.8768458      0.0035896657   0.87468094     2.7249702e-05
    990000   1.0698804      0.0043712747   1.0672057      0            
    991000   1.0574787      0.0044761184   1.0582437      0.0034086946 
    992000   0.96698644     0.0039508745   0.96456897     0            
    993000   1.0753789      0.0043937401   1.0726904      0            
    994000   1.029782       0.0042074422   1.0272076      0            
    995000   1.0493081      0.0042872213   1.0466849      0            
    996000   1.0053624      0.0041076697   1.002849       0            
    997000   0.97776539     0.0039949147   0.97532098     0            
    998000   0.97036236     0.0039646677   0.96793645     0            
    999000   0.92668513     0.0038026807   0.92448913     0.0001207163 
   1000000   0.9956838      0.0040681251   0.99319459     0            
Loop time of 16.911 on 1 procs for 1000000 steps with 400 atoms

Performance: 51091096.991 tau/day, 59133.214 timesteps/s
98.5% CPU use with 1 MPI tasks x no OpenMP threads

MPI task timing breakdown:
Section |  min time  |  avg time  |  max time  |%varavg| %total
---------------------------------------------------------------
Pair    | 0.79941    | 0.79941    | 0.79941    |   0.0 |  4.73
Bond    | 0.044261   | 0.044261   | 0.044261   |   0.0 |  0.26
Neigh   | 4.7432     | 4.7432     | 4.7432     |   0.0 | 28.05
Comm    | 0.74299    | 0.74299    | 0.74299    |   0.0 |  4.39
Output  | 0.34521    | 0.34521    | 0.34521    |   0.0 |  2.04
Modify  | 8.8622     | 8.8622     | 8.8622     |   0.0 | 52.41
Other   |            | 1.374      |            |       |  8.12

Nlocal:            400 ave         400 max         400 min
Histogram: 1 0 0 0 0 0 0 0 0 0
Nghost:             16 ave          16 max          16 min
Histogram: 1 0 0 0 0 0 0 0 0 0
Neighs:              2 ave           2 max           2 min
Histogram: 1 0 0 0 0 0 0 0 0 0

Total # of neighbors = 2
Ave neighs/atom = 0.005
Ave special neighs/atom = 0
Neighbor list builds = 212503
Dangerous builds = 0
Total wall time: 0:00:16
