fix fLANG all langevin 1.0 1.0 1.0 100
neigh_modify exclude molecule/intra all
fix rigidNVE linked_vesicle rigid/nve molecule
  1 rigid bodies with 5 atoms
fix NVE synapsin nve 1.0 1.0 1.0

    ##======================================##
    ## Output
    ##======================================##

thermo 1000
thermo_style custom step temp press etotal epair
thermo_modify flush yes
timestep 0.01

    ##======================================##
    ## Equilibration before output
    ##======================================##


    ##======================================##
    ## Run with output
    ##======================================##

fix enforce_2d all enforce2d
dump 2 all custom 1000 Results_eps_attr1_eps_rep1_eps_rep_weak0.0001_range2_attr_with_repFalse_n_synapsin400_n_vesicles1/Movie_2d_eps_attr1_eps_rep1_eps_rep_weak0.0001_range2_attr_with_repFalse_n_synapsin400_n_vesicles1.xyz id type mol x y z
run 1000000
Generated 0 of 3 mixed pair_coeff terms from geometric mixing rule
Neighbor list info ...
  update every 1 steps, delay 1 steps, check yes
  max neighbors/atom: 2000, page size: 100000
  master list distance cutoff = 11.52462
  ghost atom cutoff = 11.52462
  binsize = 5.7623102, bins = 55 55 1
  1 neighbor lists, perpetual/occasional/extra = 1 0 0
  (1) pair cosine/squared, perpetual
      attributes: half, newton on
      pair build: half/bin/newton
      stencil: half/bin/2d
      bin: standard
Per MPI rank memory allocation (min/avg/max) = 8.526 | 8.526 | 8.526 Mbytes
   Step          Temp          Press          TotEng         E_pair    
         0   0.99441908    -0.013071225    0.98336998     0            
      1000   1.052877       0.0040548885   1.0411809      2.5044906e-06
      2000   0.97902644     0.0030040622   0.96849889     0.00035052091
      3000   1.0601207      0.0035583022   1.0483416      0            
      4000   1.0466423      0.0043625821   1.0350129      0            
      5000   1.0005436      0.0035020426   0.98945454     2.8061539e-05
      6000   0.97028404     0.0030784247   0.95950311     0            
      7000   0.9429228      0.0035389451   0.9342467      0.001800821  
      8000   1.070792       0.0042930144   1.0588943      0            
      9000   1.099818       0.0040939823   1.0875978      0            
     10000   1.0642281      0.0047822672   1.0522943     -0.00010900216
     11000   0.96178959     0.0044415766   0.95110304     0            
     12000   0.92755457     0.0051472172   0.91721306    -3.534933e-05 
     13000   0.95812826     0.0033323344   0.94680544    -0.00067695481
     14000   1.0603063      0.0044207237   1.0485251      0            
     15000   0.96755335     0.004515287    0.95672161    -8.1142615e-05
     16000   0.96451588     0.0038359228   0.95382752     2.8488409e-05
     17000   1.0117973      0.0052615745   1.0005551      0            
     18000   1.0827211      0.0046198791   1.0708079      0.00011702663
     19000   0.99983495     0.0039601549   0.98872567     0            
     20000   0.99331878     0.0045392909   0.98228191     0            
     21000   0.94503731     0.0045414454   0.93079081    -0.0037460853 
     22000   0.91137899     0.0037992092   0.89950047    -0.0017520815 
     23000   0.90707428     0.0034869013   0.89699568     0            
     24000   0.95270872     0.0045321341   0.94212307     0            
     25000   0.95334491     0.0040438249   0.94275219     0            
     26000   0.96413836     0.0034373352   0.95342571     0            
     27000   1.0007922      0.0040960224   0.98967233     0            
     28000   1.0160633      0.0031985284   1.0047737      0            
     29000   1.0287626      0.004440973    1.0175714      0.00023945388
     30000   0.95771888     0.0041154053   0.94707756     0            
     31000   0.9888019      0.0042355981   0.97781521     0            
     32000   1.049584       0.0046913269   1.037922       0            
     33000   1.0290413      0.0045945833   1.0176075      0            
     34000   0.95279253     0.0041453446   0.94220595     0            
     35000   1.0611372      0.005584861    1.0492049     -0.00014192062
     36000   0.99259799     0.0043220664   0.9793828     -0.0021863186 
     37000   1.0194068      0.0031538718   1.0058564     -0.0022237147 
     38000   0.99041658     0.0034209294   0.97996041     0.00054845946
     39000   0.90826429     0.0029163219   0.89867948     0.00050701137
     40000   1.0292065      0.0045316681   1.0177142     -5.6650983e-05
     41000   0.9444687      0.0034037752   0.93174994    -0.0022246676 
     42000   1.0301028      0.0042712626   1.0182497     -0.00040748685
     43000   0.99582956     0.003330505    0.98476479     0            
     44000   1.043658       0.0049574154   1.0318892     -0.00017257429
     45000   1.0310104      0.0042985154   1.0185201     -0.0010346095 
     46000   1.0366389      0.0042776297   1.0232492     -0.0018714986 
     47000   0.98871823     0.003227007    0.97834361     0.0006111403 
     48000   1.0517269      0.0047539966   1.0404076      0.00036654094
     49000   1.0113486      0.0037497021   1.0001114      0            
     50000   0.96500223     0.0035092844   0.95427998     0            
     51000   1.0238782      0.0041375271   1.0125017      0            
     52000   1.1039047      0.0041604777   1.0916391      0            
     53000   1.0430558      0.0037374087   1.0314663      0            
     54000   1.067114       0.0046472096   1.0552572      0            
     55000   0.98864251     0.0045206763   0.9776576      0            
     56000   1.044141       0.0047865178   1.0325395      0            
     57000   0.99025214     0.0042884258   0.97924934     0            
     58000   0.96716192     0.0039784345   0.95641567     0            
     59000   1.0196895      0.0049622704   1.0083596      0            
     60000   1.0161971      0.0042931035   1.004906       0            
     61000   1.0476238      0.0049506161   1.0359836      0            
     62000   0.9754215      0.0038540358   0.96777094     0.0031874513 
     63000   1.076939       0.004604648    1.064973       0            
     64000   0.9774478      0.0044131737   0.96658727     0            
     65000   1.0519239      0.0035338643   1.0403013      6.5469676e-05
     66000   1.0340653      0.005252393    1.0225757      0            
     67000   0.99267211     0.0043465857   0.98164242     0            
     68000   1.0042231      0.0033829628   0.9930651      0            
     69000   1.0009629      0.0042398047   0.98984109     0            
     70000   1.0453705      0.0052914858   1.0337552      0            
     71000   0.96396941     0.0034359173   0.95325864     0            
     72000   1.0514974      0.0041572957   1.0398141      0            
     73000   0.96926272     0.0045259013   0.95849314     0            
     74000   0.93559623     0.0037054832   0.92520072     0            
     75000   1.031989       0.004268425    1.0187351     -0.0017873608 
     76000   1.073103       0.0030044474   1.059129      -0.0020505971 
     77000   1.0410975      0.0051487122   1.0295298      0            
     78000   0.98978441     0.0051359044   0.97878681     0            
     79000   1.0329093      0.0037310302   1.0214326      0            
     80000   1.0800148      0.0047194692   1.0671901     -0.00082458715
     81000   0.96731149     0.0043394723   0.95656359     0            
     82000   1.019633       0.0041948075   1.0057206     -0.0025831005 
     83000   1.0178533      0.003902198    1.0040857     -0.0024581868 
     84000   0.9357785      0.004459744    0.92538096     0            
     85000   0.94625544     0.0030701497   0.93574149     0            
     86000   1.0101787      0.0038824512   0.99895453     0            
     87000   0.96186438     0.0046258445   0.951177       0            
     88000   1.0080324      0.0050047022   0.99493889    -0.001893186  
     89000   0.96454668     0.0037294655   0.95158586    -0.0022436266 
     90000   0.97348507     0.0048381751   0.96266857     0            
     91000   0.99713479     0.0046287715   0.98605551     0            
     92000   1.0109867      0.0039336149   0.9997535      0            
     93000   1.041399       0.0041126574   1.0298279      0            
     94000   1.0101761      0.004684746    0.99895195     0            
     95000   1.005797       0.0037098395   0.99462152     0            
     96000   1.0492693      0.0034236605   1.0369789     -0.00063187684
     97000   0.95246467     0.0030835816   0.94162316    -0.00025856562
     98000   0.98833871     0.0047567938   0.97504502    -0.0023121398 
     99000   0.9749074      0.0030175669   0.96404193    -3.3162571e-05
    100000   0.9759601      0.0045842572   0.9651161      0            
    101000   1.1009702      0.0043723284   1.0887372      0            
    102000   0.97485415     0.0042516423   0.96375357    -0.00026886907
    103000   1.0683539      0.0042827728   1.0565007      1.7470349e-05
    104000   0.96571931     0.0027206836   0.95492028    -6.8808753e-05
    105000   0.9943209      0.004106365    0.98326822    -4.6677792e-06
    106000   0.96600443     0.0048410342   0.95462703    -0.00064401273
    107000   1.0063212      0.0037153288   0.99471941    -0.00042043767
    108000   0.95634768     0.0036641666   0.943322      -0.0023995919 
    109000   0.97471834     0.0039549105   0.9623866     -0.0015015335 
    110000   1.0670741      0.0043409881   1.054889      -0.00032873113
    111000   1.038303       0.0042942021   1.0252876     -0.0014787193 
    112000   1.0162161      0.0042936813   1.0034043     -0.0015205201 
    113000   1.0138382      0.003261775    1.0025842      1.0861559e-05
    114000   1.0024853      0.0046228891   0.98846729    -0.0028792553 
    115000   1.1322737      0.0041492802   1.1175129     -0.0021799771 
    116000   1.0451229      0.0041983614   1.0335104      0            
    117000   1.0309343      0.004340895    1.019131      -0.00034851501
    118000   1.0836404      0.003665307    1.0715999      0            
    119000   1.0401259      0.0037502673   1.0285689      0            
    120000   1.017449       0.0034295335   1.0055005     -0.00064349247
    121000   1.0907138      0.0041779705   1.0746907     -0.0039040606 
    122000   0.97662161     0.0046639871   0.96334159    -0.0024286712 
    123000   1.0270834      0.0036045445   1.0138888     -0.0017826162 
    124000   0.97190936     0.0040183839   0.95502465    -0.0060857118 
    125000   0.98408227     0.0043023225   0.97045246    -0.0026955625 
    126000   1.0139343      0.0044837752   1.0015495     -0.00111882   
    127000   0.9979526      0.0028669008   0.98601473    -0.0008495088 
    128000   1.0647929      0.0049273634   1.0526421     -0.00031974791
    129000   1.014163       0.0037817032   1.0024784     -0.00041618811
    130000   0.99300139     0.0033728126   0.9800645     -0.0019035412 
    131000   0.99656263     0.0051725905   0.98549048     7.7093907e-07
    132000   0.9401469      0.0035713435   0.92970082     0            
    133000   0.9987187      0.0047730046   0.98672021    -0.00090160955
    134000   1.0484902      0.0044735307   1.0368403      0            
    135000   1.0461771      0.0039916549   1.0345529      2.5277538e-08
    136000   0.90972797     0.0035867312   0.89961989     0            
    137000   0.9786032      0.0036346565   0.9698824      0.0021525613 
    138000   0.96720026     0.0033340907   0.95645359     0            
    139000   0.95968245     0.0041647329   0.94835317    -0.00066613727
    140000   0.97936172     0.0038299443   0.96847993     0            
    141000   0.99158857     0.0033967955   0.98057092     0            
    142000   1.0370714      0.003457267    1.0251079     -0.00044053763
    143000   0.9167198      0.0031310346   0.90653402     0            
    144000   1.0461314      0.0045565462   1.0341791     -0.00032868907
    145000   0.90504677     0.0030419353   0.89499069     0            
    146000   0.95084655     0.0038090048   0.94028159     0            
    147000   1.0168129      0.0047356366   1.0058235      0.00030846862
    148000   1.0040346      0.0040039694   0.99287863     0            
    149000   0.9199182      0.0046119119   0.90969689     0            
    150000   1.0049802      0.0037996227   0.99134475    -0.0024690236 
    151000   0.98025706     0.0037873236   0.96886381    -0.00050150722
    152000   1.0708455      0.0039797522   1.0589472      0            
    153000   0.99422933     0.0038239086   0.98318234     0            
    154000   1.0184415      0.003517322    1.0071255      0            
    155000   1.1126824      0.0050520893   1.1003192      0            
    156000   1.0729527      0.0038047132   1.061249       0.00021797647
    157000   0.96608763     0.0038336695   0.95535332     0            
    158000   1.0431967      0.0046717753   1.0317103      0.00010470457
    159000   0.96792131     0.0050568265   0.95716663     0            
    160000   0.99717222     0.0039325647   0.98609253     0            
    161000   0.95473136     0.0044515018   0.94413265     9.4150453e-06
    162000   1.0474087      0.0050783163   1.0357709      0            
    163000   1.0258507      0.0036382303   1.0144524      0            
    164000   1.0216895      0.0045276083   1.0103374      0            
    165000   1.0554995      0.0040611544   1.0437717      0            
    166000   0.92868848     0.0040301016   0.91836972     0            
    167000   1.009121       0.0035523595   0.99790858     0            
    168000   1.09015        0.0039886158   1.0818839      0.0038467398 
    169000   1.0343166      0.0036967376   1.0228241      0            
    170000   1.0054462      0.003984822    0.99427456     0            
    171000   1.0190965      0.0043954442   1.0077732      0            
    172000   1.0510505      0.0051771177   1.0425052      0.0031330602 
    173000   1.0173531      0.0033534253   1.0054202     -0.00062896827
    174000   1.0649101      0.0045826643   1.0530778      1.7170444e-09
    175000   0.97292808     0.0042564405   0.96032586    -0.0017919085 
    176000   0.94238205     0.0045470103   0.93191114     0            
    177000   1.001825       0.0041870178   0.99069363     0            
    178000   0.96686736     0.003239391    0.95612439     0            
    179000   1.0073668      0.0041726458   0.99617379     0            
    180000   0.95868164     0.0032832452   0.94802962     0            
    181000   1.0018034      0.0045828022   0.99386921     0.0031969819 
    182000   0.99002912     0.0043313945   0.9790288      0            
    183000   1.0422048      0.0031786734   1.0289884     -0.0016363631 
    184000   1.0584362      0.0039828058   1.0466564     -1.9445275e-05
    185000   1.0101429      0.0041431359   0.99787269    -0.0010463545 
    186000   1.0018703      0.0034440073   0.99068667    -5.1772753e-05
    187000   0.98747293     0.0042873836   0.97650101     0            
    188000   1.0377537      0.0046615108   1.0235257     -0.0026974976 
    189000   0.91339708     0.0029502985   0.90311349    -0.0001347321 
    190000   1.0654504      0.0036992337   1.0532643     -0.00034775319
    191000   1.0490055      0.0054000771   1.0330573     -0.0042925877 
    192000   1.0510195      0.0039625309   1.0368739     -0.0024676737 
    193000   1.0135429      0.0043681736   0.99983807    -0.002443286  
    194000   0.99122372     0.0039812772   0.97630744    -0.0039026766 
    195000   1.0649807      0.0029786467   1.052186      -0.00096156809
    196000   1.0420299      0.0044643935   1.027317      -0.0031348186 
    197000   0.98927588     0.0040076868   0.97842762     0.00014368752
    198000   0.91487424     0.0036702762   0.90249131    -0.0022176602 
    199000   0.95831459     0.0037148963   0.94544139    -0.0022252653 
    200000   0.99354797     0.0035683403   0.98210359    -0.00040495229
    201000   1.0193005      0.0040849976   1.0065957     -0.001379213  
    202000   1.0172463      0.004282809    1.0059436      0            
    203000   0.94200258     0.0044499241   0.93222698     0.00069109363
    204000   0.97235979     0.003462911    0.96155579     0            
    205000   0.96988766     0.0040708002   0.95660624    -0.0025048926 
    206000   0.95108033     0.0043613861   0.93822502    -0.0022877459 
    207000   1.0358815      0.0040673165   1.0243515     -2.0144061e-05
    208000   0.96789533     0.0047389803   0.95586353    -0.0012774093 
    209000   1.0062383      0.0045556922   0.99545531     0.00039746881
    210000   1.0155647      0.0040915096   1.0025928     -0.0016878507 
    211000   1.045074       0.004359862    1.0346142      0.00115214   
    212000   0.98870326     0.0034151359   0.97675379    -0.00096388384
    213000   0.97089423     0.003675095    0.95909075    -0.0010157597 
    214000   1.0384938      0.003970451    1.026956       1.0211382e-06
    215000   0.99599582     0.0031008666   0.9849292      0            
    216000   0.99508185     0.0034911064   0.98402539     0            
    217000   0.97180979     0.0045761273   0.96101187    -2.8236559e-08
    218000   1.0279181      0.0049447663   1.0159697     -0.00052700223
    219000   0.98976426     0.0034951623   0.97462934    -0.0041375391 
    220000   1.066202       0.0041525686   1.0533205     -0.0010348144 
    221000   1.1027567      0.0043047843   1.0890938     -0.0014099926 
    222000   1.0120102      0.0040658207   1.0003934     -0.00037227486
    223000   0.9549207      0.0034375768   0.94291366    -0.0013968119 
    224000   1.0017129      0.0044471589   0.99058278     0            
    225000   0.99782331     0.0045767368   0.98673639     0            
    226000   0.96407368     0.0039854251   0.95336175     0            
    227000   1.0662789      0.0036954931   1.0544227     -8.6382329e-06
    228000   1.0237573      0.0042677776   1.0106481     -0.0017341467 
    229000   1.0950936      0.0045319457   1.0804599     -0.0024660142 
    230000   0.98569738     0.0034976997   0.97367916    -0.001066032  
    231000   1.0231108      0.0034499304   1.0117429      0            
    232000   1.075572       0.0047621506   1.0636212      0            
    233000   1.0061581      0.0039742411   0.99497853     0            
    234000   0.93912556     0.0030120283   0.92869083     0            
    235000   0.99506817     0.0048639254   0.98284068    -0.0011711732 
    236000   1.0963876      0.0039836802   1.0842056      0            
    237000   1.0566752      0.0044050288   1.0449345      1.671638e-07 
    238000   0.9935675      0.0035802658   0.98005875    -0.0024691088 
    239000   0.92232273     0.0032171567   0.91090413    -0.0011705708 
    240000   0.99459609     0.0034597739   0.98354502     0            
    241000   0.91795986     0.0033852884   0.90712233    -0.00063796943
    242000   0.97199017     0.0039361968   0.95878351    -0.0024067621 
    243000   0.93458219     0.0044317812   0.92419729    -6.5892292e-07
    244000   0.95876565     0.0035301605   0.9481127      0            
    245000   0.94240208     0.0043108848   0.93193095     0            
    246000   0.97420787     0.0034189724   0.96338334     0            
    247000   1.0902396      0.0036649719   1.0781258      0            
    248000   0.97769803     0.0044306825   0.96683472     0            
    249000   1.0696177      0.0047339366   1.0577331      0            
    250000   0.97524468     0.0036716576   0.96440863     0            
    251000   0.9277271      0.003961776    0.91741902     0            
    252000   0.94604695     0.0034430933   0.93553531     0            
    253000   1.0185386      0.0036318095   1.0072215      0            
    254000   1.0371852      0.0048726909   1.0237128     -0.0019481466 
    255000   0.95351626     0.0041696726   0.94045269    -0.0024689444 
    256000   0.94781972     0.0040035857   0.937289       6.0678801e-07
    257000   0.9962681      0.0035990896   0.98519846     0            
    258000   1.0333738      0.0038274861   1.0218919      0            
    259000   1.0285215      0.0041321202   1.0170935      0            
    260000   0.9190864      0.0033340291   0.90887433     0            
    261000   0.99476046     0.0045129784   0.98295131    -0.0007562515 
    262000   0.95519421     0.0035842831   0.94257911    -0.0020018296 
    263000   0.94202542     0.0036125576   0.93155847     0            
    264000   0.98182505     0.003625438    0.96844685    -0.0024690261 
    265000   1.0239773      0.004569298    1.0103421     -0.0022577161 
    266000   0.97623872     0.0046328496   0.96433884    -0.0010527844 
    267000   0.93481781     0.0035242489   0.92341313    -0.0010178102 
    268000   0.99263031     0.0029258285   0.98160109     0            
    269000   0.97030071     0.0035411389   0.9595196      0            
    270000   1.0434159      0.0028128559   1.0318223      0            
    271000   1.0326772      0.0047122531   1.021203       0            
    272000   0.95452419     0.0039227306   0.94188496    -0.0020334064 
    273000   1.0357073      0.0041368217   1.0241995      0            
    274000   0.99841424     0.0049522814   0.98732074     0            
    275000   0.98074263     0.00420552     0.96984549     0            
    276000   1.014945       0.0044508348   1.0036678      0            
    277000   0.88187361     0.0036413025   0.87207502     0            
    278000   1.0352957      0.0038387871   1.0214398     -0.0023526667 
    279000   0.96996831     0.0036234655   0.95954198     0.00035109469
    280000   0.99760319     0.0043930274   0.98651871     0            
    281000   1.0640072      0.0042918514   1.0521849      0            
    282000   1.0402593      0.0043020216   1.0287009      0            
    283000   0.91634876     0.0044333565   0.9061671      0            
    284000   1.0401356      0.0045708331   1.0285785      0            
    285000   1.0267327      0.004436433    1.0152175     -0.00010706671
    286000   1.0074493      0.0045673142   0.99625545     0            
    287000   1.0210607      0.0047866142   1.0097156      0            
    288000   0.93879171     0.00385326     0.92836069     0            
    289000   0.96996701     0.0031646756   0.95691045    -0.0022791459 
    290000   0.99914882     0.0045010943   0.98807387     2.671009e-05 
    291000   0.95724731     0.0045597165   0.94697485     0.00036362821
    292000   0.99697823     0.0049135017   0.98364868    -0.002252017  
    293000   0.98681669     0.0042398962   0.97549083    -0.00036122651
    294000   0.97189397     0.0047135316   0.96133614     0.00024099888
    295000   1.0244785      0.0041325411   1.0114024     -0.0016930013 
    296000   0.89420305     0.0034014436   0.88155375    -0.0027137132 
    297000   1.032585       0.0039698062   1.0167128     -0.0043990324 
    298000   1.0615896      0.0040596608   1.0497941      0            
    299000   0.95138957     0.0039038119   0.93994869    -0.00086988343
    300000   0.98604159     0.0045658628   0.97511871     3.3138442e-05
    301000   1.0256749      0.004548451    1.013427      -0.00085151575
    302000   0.95802031     0.0039017546   0.9436204     -0.003755244  
    303000   1.0007539      0.0030668059   0.98963443     0            
    304000   0.9826555      0.0047705257   0.97150316    -0.00023395285
    305000   1.0076601      0.0038293302   0.99419351    -0.0022703656 
    306000   1.004309       0.0042243001   0.99314996     0            
    307000   1.0257601      0.0039731863   1.0144903      0.00012751692
    308000   0.99107267     0.0039170073   0.97764525    -0.0024154987 
    309000   0.91422336     0.0036797096   0.90287899    -0.0011863294 
    310000   1.0002186      0.0050248039   0.98910509     0            
    311000   0.99231069     0.0040752856   0.98128501     0            
    312000   1.0391546      0.0042762569   1.0276085      0            
    313000   1.0059095      0.0042586584   0.99472447    -8.2744373e-06
    314000   0.93602776     0.0032832604   0.9235413     -0.0020861538 
    315000   1.0504004      0.0039988562   1.0342576     -0.0044717158 
    316000   0.9667291      0.0042376871   0.95596472    -2.2941659e-05
    317000   0.93558023     0.0046738479   0.92483504    -0.00034985248
    318000   1.0554778      0.0041621122   1.041122      -0.0026282182 
    319000   1.0638918      0.0043098596   1.0468632     -0.005207498  
    320000   0.97356922     0.0031595203   0.96120519    -0.0015465985 
    321000   0.90644754     0.0031560702   0.89816971     0.0017938044 
    322000   1.0248514      0.0034793512   1.0086422     -0.0048219312 
    323000   1.0585514      0.0034708701   1.0445212     -0.0022685496 
    324000   0.9261385      0.003697183    0.91355216    -0.0022959079 
    325000   0.99538824     0.0049106156   0.98187665    -0.0024517253 
    326000   1.0782948      0.0043540998   1.0646814     -0.0016323494 
    327000   1.0399563      0.0038360526   1.0284013      0            
    328000   1.0045399      0.0044212447   0.99337834     0            
    329000   0.9961543      0.0042812582   0.98508592     0            
    330000   1.0687905      0.0042550068   1.0569151      0            
    331000   1.0126174      0.0039470338   1.0013661      0            
    332000   1.0680876      0.0051966346   1.056076      -0.00014402373
    333000   1.0133761      0.0039522835   0.9997957     -0.0023206989 
    334000   1.0084821      0.0039881176   0.9940794     -0.0031973596 
    335000   0.93598939     0.0041835839   0.92558973     2.3030983e-07
    336000   1.0121025      0.0051959904   1.0017918      0.00093493811
    337000   1.0409844      0.0053138353   1.0278134     -0.0016045129 
    338000   1.057561       0.0050571297   1.0437485     -0.0020618383 
    339000   1.0293352      0.004583912    1.0143635     -0.0035345939 
    340000   1.0361612      0.0045245544   1.0246661      1.7784649e-05
    341000   0.98373578     0.0035130891   0.97193559    -0.00086979352
    342000   0.9539113      0.003725283    0.94333424     2.1957252e-05
    343000   1.0576097      0.0035400654   1.0434231     -0.0024354404 
    344000   1.1149438      0.0055101215   1.1020574     -0.00049810587
    345000   0.94053771     0.0032596172   0.92817658    -0.0019107109 
    346000   1.014841       0.0036686535   1.0033258     -0.00023927111
    347000   1.0873054      0.0049566687   1.073285      -0.0019392522 
    348000   1.0153073      0.0046486809   1.0018749     -0.0021512015 
    349000   1.0116305      0.0048363147   1.0016193      0.0012291938 
    350000   0.91515799     0.0030270777   0.90498957     0            
    351000   0.97097694     0.003695124    0.9601883      0            
    352000   1.1002307      0.0045406832   1.0880059      0            
    353000   1.0076187      0.0034693325   0.99642292     0            
    354000   0.93940037     0.0035737576   0.92929996     0.00033736495
    355000   0.98283579     0.0036199319   0.9719154      0            
    356000   1.0002833      0.0033885719   0.98783799    -0.0013310636 
    357000   0.99374726     0.004845794    0.98118929    -0.0015163314 
    358000   0.96212132     0.004319167    0.95143108     0            
    359000   1.0082124      0.0037140947   0.99341936    -0.0035906711 
    360000   0.9771048      0.003787613    0.96515625    -0.0010918351 
    361000   1.058647       0.0038237702   1.0462926     -0.00059167547
    362000   1.0564483      0.0043890031   1.0446022     -0.00010776107
    363000   1.0019562      0.0040102437   0.98596137    -0.0048620178 
    364000   0.95498548     0.0048094525   0.94437453     0            
    365000   0.97222563     0.0033498784   0.95701975    -0.0044033683 
    366000   1.0219512      0.0034660567   1.0105884     -7.7981809e-06
    367000   1.0125404      0.004051093    1.00129        0            
    368000   0.94264389     0.0034564123   0.93217007     0            
    369000   0.88369282     0.0033344556   0.87387401     0            
    370000   0.97968117     0.0045568854   0.96879582     0            
    371000   1.0338685      0.0048500248   1.022381       0            
    372000   1.0498171      0.0044548153   1.0381525      0            
    373000   0.98148055     0.0042881577   0.97057521     0            
    374000   0.98371236     0.0050095717   0.97278243     2.0057552e-07
    375000   1.0446664      0.0049022334   1.033059       0            
    376000   0.98683333     0.003765806    0.97586852     0            
    377000   0.95144733     0.0036445399   0.9408757      0            
    378000   1.038194       0.0036504639   1.0266585      0            
    379000   0.99481335     0.0041941122   0.98375987     0            
    380000   0.96087251     0.0046782935   0.95125047     0.0010543235 
    381000   0.97514621     0.0038049181   0.96190253    -0.0024087266 
    382000   0.98649357     0.0033147214   0.97081903    -0.0047135097 
    383000   1.0567468      0.0039773997   1.0427268     -0.0022783825 
    384000   1.0381232      0.0040097492   1.0235277     -0.00306072   
    385000   0.98590195     0.0037587848   0.97388713    -0.0010603481 
    386000   1.0565186      0.0044658078   1.0447795      0            
    387000   0.95277585     0.0041811752   0.94085586    -0.0013335866 
    388000   0.97606459     0.0041994442   0.9631539     -0.0020655351 
    389000   1.0081663      0.0034838307   0.99472458    -0.002239897  
    390000   1.0026839      0.0037526118   0.99066784    -0.00087513612
    391000   1.0941537      0.0044078089   1.0819981      1.6812637e-06
    392000   1.0173142      0.0040999098   1.0060107      0            
    393000   1.0400087      0.0040649904   1.028453       0            
    394000   1.0801991      0.0041254818   1.0677732     -0.00042369114
    395000   1.0315937      0.004519272    1.0224183      0.0022866932 
    396000   0.93605989     0.0045628568   0.92565923     0            
    397000   1.0086285      0.0043263116   0.99762159     0.00020003531
    398000   0.98165032     0.0039945642   0.97074309     0            
    399000   0.91705345     0.0027762413   0.90686397     0            
    400000   1.0646238      0.0037338085   1.050818      -0.0019766788 
    401000   1.0477096      0.004023185    1.0359469     -0.00012143718
    402000   0.9456317      0.0043887018   0.9339147     -0.00120998   
    403000   1.0458125      0.0046517039   1.0323245     -0.0018679    
    404000   0.98561662     0.0038871451   0.97288779    -0.001777533  
    405000   1.0466878      0.0034279944   1.0323866     -0.0026713519 
    406000   1.0203206      0.0036934219   1.0086197     -0.00036399279
    407000   1.0060048      0.0037754996   0.99494324     0.00011626773
    408000   1.0156404      0.0044428417   1.0049894      0.00063390035
    409000   1.0669165      0.0047483045   1.0552189      0.00015705586
    410000   0.96454621     0.0038365028   0.95383069     1.6534382e-06
    411000   0.94590218     0.0035009155   0.93539215     0            
    412000   0.98732052     0.0038493062   0.97635935     9.059659e-06 
    413000   1.0402294      0.0042625092   1.0286713      0            
    414000   0.96743217     0.003623754    0.95670637     2.3446099e-05
    415000   0.99015484     0.0040730106   0.976684      -0.0024691148 
    416000   1.0683756      0.0044401208   1.0565113      6.5369796e-06
    417000   0.92351869     0.0029114475   0.91107942    -0.0021779563 
    418000   1.0370956      0.0048812656   1.0255723      0            
    419000   0.91154072     0.0039044262   0.90141249     0            
    420000   0.97534989     0.0045633678   0.96451267     0            
    421000   1.0815721      0.0045131141   1.0695547      0            
    422000   1.017325       0.0048023426   1.0060214      0            
    423000   0.98492103     0.0031896011   0.97397747     0            
    424000   0.98044645     0.0038870648   0.96758294    -0.001969657  
    425000   1.0225374      0.0042642042   1.011199       2.3131366e-05
    426000   0.99565842     0.0042977762   0.98459555     0            
    427000   0.93796797     0.0037681038   0.92756412     1.8016675e-05
    428000   1.028518       0.0044486203   1.0141391     -0.0029509177 
    429000   0.93300681     0.0035926722   0.92055662    -0.002083449  
    430000   0.99353124     0.0032420582   0.98002287    -0.0024691329 
    431000   0.96080572     0.003927609    0.95013015     4.6983798e-08
    432000   1.0549123      0.0040928792   1.0431911      0            
    433000   0.90606643     0.005184544    0.89349729    -0.0025017346 
    434000   0.9693723      0.0044409559   0.95674207    -0.0018594269 
    435000   1.0438934      0.0037894613   1.0280259     -0.0042686774 
    436000   0.98260828     0.0037097842   0.96718069    -0.0045097207 
    437000   1.0579007      0.0037743117   1.0471391      0.00099282206
    438000   0.92651051     0.0037480095   0.91621595     0            
    439000   1.0247341      0.0036319549   1.0113241     -0.002024096  
    440000   1.0105798      0.0042550502   0.99471071    -0.0046404154 
    441000   0.97523109     0.0046517625   0.96183612    -0.0025590713 
    442000   0.98576472     0.0032412336   0.96869624    -0.0061155388 
    443000   1.0673001      0.0042442132   1.0537889     -0.0016523737 
    444000   0.98061604     0.0048589503   0.96529591    -0.0044243936 
    445000   1.0108085      0.0044483549   0.99957736     3.1092471e-08
    446000   1.0127008      0.0043538081   0.99718084    -0.0042677229 
    447000   1.0822826      0.0040819268   1.065834      -0.0044232996 
    448000   0.93721731     0.0041639936   0.92401439    -0.0027893977 
    449000   0.90829105     0.0037731055   0.89700288    -0.0011960434 
    450000   0.99047915     0.0047913883   0.97947484     1.0185801e-06
    451000   0.91621004     0.0037179698   0.90605254     2.2614934e-05
    452000   1.0464424      0.0049990912   1.0348152      0            
    453000   1.0260644      0.004590387    1.0130387     -0.0016249858 
    454000   1.0219441      0.0050733786   1.0081469     -0.0024422599 
    455000   0.97524838     0.0040490951   0.96440764    -4.6508421e-06
    456000   0.98420318     0.0038120734   0.97042831    -0.0028392754 
    457000   1.1023344      0.0045285093   1.0900862      0            
    458000   1.0222758      0.0037394553   1.0098711     -0.0010460393 
    459000   0.98092375     0.003497699    0.97002583     1.2359326e-06
    460000   0.95293752     0.0045795089   0.94281733     0.00046800404
    461000   1.0936296      0.0043425233   1.0814782      0            
    462000   0.95117624     0.004605938    0.94060762     0            
    463000   0.96351662     0.0039632193   0.95281088     0            
    464000   0.90117238     0.0032344615   0.88980787    -0.0013514832 
    465000   0.97910512     0.0041402439   0.965758      -0.0024681771 
    466000   0.94712008     0.0031162039   0.93659652     0            
    467000   0.969638       0.0037149805   0.95834436    -0.00051987857
    468000   0.99189867     0.00371955     0.98101592     0.00013834773
    469000   1.0771251      0.004258394    1.065157       0            
    470000   0.97122177     0.0033329639   0.96000371    -0.00042670242
    471000   0.97449397     0.0041875644   0.96366626     0            
    472000   1.0357248      0.0043506      1.0242168      0            
    473000   1.0616119      0.0047654768   1.0498162      0            
    474000   1.0485644      0.0037698187   1.0369137      0            
    475000   1.0218137      0.0052485159   1.0104602      0            
    476000   1.007045       0.0039846904   0.99585557     0            
    477000   1.0673647      0.0048422632   1.0555051      0            
    478000   0.93103103     0.0048016209   0.92042453    -0.00026170267
    479000   0.98973818     0.003472786    0.97874108     0            
    480000   1.0145213      0.0043261455   1.0019722     -0.0012765804 
    481000   1.0318817      0.0042698912   1.0185313     -0.0018851355 
    482000   1.1340289      0.0049592598   1.1201845     -0.0012440646 
    483000   0.95462094     0.0035447603   0.94444886     0.00043481909
    484000   1.0045852      0.0041569229   0.99342314     0            
    485000   1.0019562      0.0039480107   0.99082337     0            
    486000   0.97704321     0.0037764827   0.96618717     0            
    487000   0.97698087     0.0048793185   0.96612553     0            
    488000   0.95875395     0.0033994114   0.94810113     0            
    489000   0.98061629     0.0039556507   0.96972056     0            
    490000   1.0750802      0.0059431226   1.0627542     -0.00038061673
    491000   0.97781623     0.0043105849   0.96588325    -0.0010683555 
    492000   0.99050046     0.0040637975   0.97809108    -0.0014038232 
    493000   1.0015613      0.0043772363   0.98968944    -0.00074343693
    494000   1.0072464      0.0036720188   0.9960548      1.3228608e-08
    495000   0.9390318      0.0030128273   0.92612972    -0.0024683946 
    496000   0.94770779     0.004580614    0.93238075    -0.0047969599 
    497000   1.0283685      0.0040159976   1.0144821     -0.0024601356 
    498000   1.0023179      0.0043756929   0.99082383    -0.00035721513
    499000   1.0442014      0.0050382055   1.0305868     -0.0020123767 
    500000   0.98722175     0.0048289726   0.97625835     5.7244073e-06
    501000   1.0709721      0.0043040422   1.0589428     -0.00012962559
    502000   1.038067       0.0044480446   1.0237643     -0.0027686203 
    503000   0.98227936     0.0037626502   0.97136515     0            
    504000   1.0014649      0.0037614641   0.99033754     0            
    505000   0.9634016      0.0035349614   0.95269714     0            
    506000   1.0068575      0.0043772568   0.99567022     0            
    507000   1.0409944      0.0043520331   1.0299882      0.00056039866
    508000   0.97059652     0.0038959634   0.95981212     0            
    509000   1.0264972      0.0043672597   1.0150917      0            
    510000   1.0397983      0.0045767988   1.028245       0            
    511000   0.99275875     0.003427095    0.98172809     0            
    512000   1.0489332      0.0039763295   1.0372784      0            
    513000   1.0468099      0.0032725764   1.0347045     -0.00047409598
    514000   1.0639187      0.0037952431   1.0522545      0.00015713216
    515000   0.99676547     0.0045475591   0.9856903      0            
    516000   1.028246       0.0041105374   1.0171347      0.00031366039
    517000   1.029339       0.004231627    1.0179236      2.1730324e-05
    518000   0.99465417     0.0046095787   0.98274455    -0.00085791056
    519000   0.97004397     0.0046936985   0.95918916    -7.6547866e-05
    520000   1.0659382      0.0037353311   1.051662      -0.0024324449 
    521000   0.9349318      0.0039500666   0.92428636    -0.00025731479
    522000   0.92256225     0.0038010099   0.91432898     0.0020174226 
    523000   1.0403751      0.0045178306   1.0288153      0            
    524000   1.0845698      0.0031831015   1.0726583      0.00013923404
    525000   0.97467206     0.0041880622   0.96384237     0            
    526000   0.97465746     0.0038726975   0.96715953     0.0033315993 
    527000   1.0475729      0.0042557118   1.0359332      0            
    528000   1.0242312      0.0037828552   1.0128509      0            
    529000   0.93844846     0.0044341266   0.92802125     0            
    530000   0.95481464     0.0044809074   0.94173675    -0.0024688411 
    531000   0.99970782     0.0048304377   0.98634448    -0.0022554841 
    532000   0.98714834     0.0038138403   0.97581939    -0.00036063283
    533000   1.0155376      0.0049716214   1.0042538      0            
    534000   0.91432723     0.0045311417   0.90416804     0            
    535000   1.0672266      0.0036364576   1.0555372      0.00016865362
    536000   0.9648584      0.004369002    0.95413775     0            
    537000   1.0362296      0.004493229    1.0247159      0            
    538000   1.0317923      0.0036425131   1.0203279      0            
    539000   0.96653536     0.0039007043   0.95579608     0            
    540000   1.0044151      0.0033945025   0.9932549      0            
    541000   1.0480069      0.0045949032   1.0363998      3.7364543e-05
    542000   1.0104523      0.0046687636   0.99933895     0.00011388374
    543000   1.042939       0.0047075888   1.0313508      0            
    544000   1.0125805      0.0036029384   1.0017349      0.00040528981
    545000   0.99252612     0.0051652425   0.98159057     9.2515336e-05
    546000   0.97374537     0.0038654933   0.96292597     0            
    547000   1.0238634      0.0049750178   1.0124723     -1.4815521e-05
    548000   1.0630935      0.0050814809   1.0512813      0            
    549000   1.015217       0.0034316514   1.0022817     -0.0016551484 
    550000   1.1188255      0.0037350942   1.1043397     -0.0020544016 
    551000   0.94920924     0.0031445095   0.93770689    -0.00095558639
    552000   0.93012803     0.0038741751   0.91867707    -0.0011162011 
    553000   1.0769779      0.0039301042   1.0612919     -0.0037195459 
    554000   0.9876219      0.0041244484   0.97391471    -0.0027336152 
    555000   1.0163307      0.0040230019   1.0050382      0            
    556000   1.0144335      0.0046251631   1.0019809     -0.0011810609 
    557000   1.0888353      0.0038468674   1.0767371      0            
    558000   0.97317368     0.0036372432   0.96199549    -0.00036515141
    559000   1.005109       0.0035979928   0.99394114     0            
    560000   1.040626       0.0059975748   1.0294147      0.00035121484
    561000   1.0384307      0.0046461989   1.0268926      0            
    562000   0.99645394     0.0044195702   0.98309033    -0.0022918968 
    563000   1.0041425      0.0038023646   0.99067647    -0.002308929  
    564000   1.0740516      0.0037126828   1.0614311     -0.000686589  
    565000   0.96964967     0.0034181889   0.96002582     0.0011500351 
    566000   1.0428081      0.0045140301   1.0312213      0            
    567000   0.93821007     0.003814033    0.92778551     0            
    568000   0.98710501     0.0037902423   0.97613717     0            
    569000   0.97421753     0.0032121778   0.96339289     0            
    570000   1.0004503      0.0044977371   0.98953062     0.0001963831 
    571000   1.0379048      0.0038859548   1.0263726      0            
    572000   0.99513564     0.0044249945   0.98178091    -0.0022976612 
    573000   1.0451631      0.0038445608   1.0322825     -0.0012676204 
    574000   1.019309       0.0028418078   1.0058433     -0.0021399993 
    575000   1.0962468      0.0047254461   1.0817502     -0.0023160664 
    576000   1.0100856      0.005251874    0.9988624      0            
    577000   1.0472069      0.0035654419   1.0349104     -0.00066086923
    578000   0.9635298      0.0053214454   0.95245371    -0.00037020173
    579000   0.93330725     0.0038403381   0.92052016    -0.0024170013 
    580000   0.85088037     0.0029938082   0.84018608    -0.0012400646 
    581000   0.99380249     0.0041912767   0.98276024     0            
    582000   1.0805464      0.0031248655   1.0638397     -0.0047006277 
    583000   1.0709581      0.0047197021   1.0574906     -0.0015679508 
    584000   0.95868501     0.004082403    0.94900584     0.0009728795 
    585000   0.87070078     0.0027882144   0.85984073    -0.0011855994 
    586000   1.0225405      0.0042974952   1.0111789      0            
    587000   1.0891775      0.0048089025   1.0770756      0            
    588000   1.0195579      0.0044232159   1.0082295      0            
    589000   1.1015202      0.0042665895   1.0899227      0.00064161324
    590000   1.0039662      0.0036427961   0.99054191    -0.0022690623 
    591000   1.0878195      0.0033993884   1.0757326      0            
    592000   0.85673328     0.0034399494   0.84548349    -0.0017305253 
    593000   1.0245386      0.0041420069   1.011672      -0.0014828258 
    594000   0.98590502     0.0049659496   0.97377776    -0.0011727589 
    595000   0.94475817     0.0040900684   0.93426086     0            
    596000   1.0031204      0.0040376132   0.99192835    -4.6264716e-05
    597000   1.0574566      0.0042502797   1.0435431     -0.0021640157 
    598000   1.0178283      0.0042568987   1.0027813     -0.0037378405 
    599000   0.9832442      0.0038263064   0.97059427    -0.0017249918 
    600000   1.1056353      0.0043280782   1.0888834     -0.0044670692 
    601000   1.0007151      0.003595075    0.98959602     0            
    602000   1.0052191      0.0037851878   0.99404974    -2.2156602e-07
    603000   0.95092882     0.0031047636   0.93833831    -0.0020246305 
    604000   0.91427141     0.0037477654   0.9040566     -5.6239657e-05
    605000   0.95995253     0.0036674664   0.94673124    -0.0025551532 
    606000   0.99746695     0.0037090054   0.98836223     0.0019782458 
    607000   1.0074282      0.0048747966   0.99275885    -0.0034756536 
    608000   1.0404997      0.0041961867   1.0265816     -0.0023570059 
    609000   0.96699463     0.0042064986   0.95213412    -0.0041161237 
    610000   0.98440662     0.0041906648   0.97155285    -0.0019159206 
    611000   0.93682833     0.0034282303   0.92439916    -0.0020199603 
    612000   1.0161966      0.0043624839   1.0061078      0.0012022476 
    613000   1.0095172      0.0051504319   0.99933425     0.0010338636 
    614000   1.0283733      0.0041816187   1.0135599     -0.0033871216 
    615000   1.0528647      0.0039707061   1.0411662      0            
    616000   1.0518883      0.0045837055   1.0402006      0            
    617000   0.92444302     0.0033853895   0.91262185    -0.0015495799 
    618000   0.99969326     0.0049408404   0.98859946     1.3903366e-05
    619000   1.0683491      0.0044436175   1.0545787     -0.0018998436 
    620000   0.98033709     0.0037247141   0.96944445     0            
    621000   0.95177514     0.0033364426   0.94119986     0            
    622000   0.90810645     0.0038331733   0.89837901     0.00036263414
    623000   0.92385834     0.0037756584   0.91195824    -0.0016350072 
    624000   1.0116009      0.0048691203   1.0022097      0.0018488439 
    625000   1.0093721      0.0039547642   0.99815687     0            
    626000   1.0061848      0.0044410513   0.995005       0            
    627000   1.0542469      0.0042651121   1.0425331      0            
    628000   1.0217854      0.0035501329   1.008011      -0.0024212189 
    629000   0.96698257     0.0043376972   0.95623832     0            
    630000   1.047113       0.0038233913   1.0346822     -0.0007961972 
    631000   0.98036578     0.0045656684   0.96926157    -0.00021125818
    632000   1.0096807      0.0043565355   0.99846203     0            
    633000   1.033091       0.003731587    1.0216122      0            
    634000   1.043619       0.004351827    1.0320233      0            
    635000   1.0185727      0.0042683248   1.0072552      0            
    636000   0.97454261     0.004127551    0.96371436     0            
    637000   1.025774       0.0040383071   1.0131013     -0.0012751826 
    638000   1.0284088      0.0050619151   1.015558      -0.0014240155 
    639000   1.0013686      0.0032511575   0.9902423      0            
    640000   0.9468748      0.0037850622   0.93635396     0            
    641000   1.0678212      0.0052225108   1.0559566      0            
    642000   0.91238449     0.0033802668   0.90224689     0            
    643000   0.99026049     0.003976458    0.97925759     0            
    644000   0.94660905     0.0026943745   0.93609117     0            
    645000   0.96086725     0.0041925465   0.95019095     0            
    646000   0.96790477     0.0041352057   0.95715027     0            
    647000   1.0190163      0.0041005181   1.0084114      0.00071758747
    648000   1.030617       0.0041761376   1.017545      -0.0016207159 
    649000   0.98147168     0.0037924763   0.97139439     0.0008279589 
    650000   1.0025747      0.0034017037   0.99143526     2.9489205e-07
    651000   0.91533675     0.0044008819   0.90393289    -0.0012334501 
    652000   1.0750656      0.00514305     1.0635492      0.00042874438
    653000   1.0340091      0.0037095713   1.0225202      0            
    654000   1.0402368      0.0046938718   1.0286786      0            
    655000   0.99594519     0.005108789    0.98487913     0            
    656000   1.0004516      0.0049888325   0.9877103     -0.0016251932 
    657000   1.0132023      0.0041315809   0.99939777    -0.0025467112 
    658000   0.96220205     0.0038547754   0.95076223    -0.00074868645
    659000   1.1121545      0.0050675987   1.095542      -0.0042552322 
    660000   1.0600552      0.0042633715   1.0457131     -0.0025637142 
    661000   1.0916137      0.0047085152   1.0792299     -0.00025479261
    662000   1.0364879      0.0042768103   1.0232619     -0.0017095402 
    663000   1.0659063      0.0037223833   1.0495982     -0.0044647022 
    664000   0.90189123     0.0025040886   0.89148071    -0.00038950622
    665000   0.99241869     0.0027218608   0.9807286     -0.0006632196 
    666000   0.9930015      0.0041195767   0.98033634    -0.0016318033 
    667000   0.97916758     0.0037602049   0.96722955    -0.0010583951 
    668000   0.97305096     0.0035121407   0.96224        7.1535217e-07
    669000   1.1181177      0.0040454178   1.1063599      0.00066574334
    670000   1.0552189      0.0047465256   1.0395729     -0.0039213087 
    671000   0.96940474     0.0040920384   0.95864064     7.0596299e-06
    672000   0.94268532     0.0035074038   0.93221104     0            
    673000   0.92597322     0.00406786     0.91568463     0            
    674000   1.0328432      0.0047750837   1.0195835     -0.0017837028 
    675000   1.0584512      0.0045010068   1.0466906      0            
    676000   1.0258973      0.0040354959   1.0144985      0            
    677000   0.93687895     0.0019812571   0.92637927    -8.9920639e-05
    678000   1.011511       0.0044508835   1.000272       0            
    679000   0.97572078     0.004753081    0.96261213    -0.0022673114 
    680000   0.99390464     0.0044068437   0.98048445    -0.0023768067 
    681000   1.0028015      0.0039526292   0.98949728    -0.0021619485 
    682000   0.94954305     0.0048551185   0.93391132    -0.0050812536 
    683000   1.0313687      0.0038423197   1.0155754     -0.0043336459 
    684000   0.92720887     0.0039640494   0.91232142    -0.0045851263 
    685000   1.0426328      0.0039878208   1.0286973     -0.0023506298 
    686000   1.0423326      0.0038324833   1.0293872     -0.0013639777 
    687000   1.0128186      0.0035938259   1.0024461      0.00088108693
    688000   1.0082348      0.0042910815   0.99722323     0.00019106065
    689000   1.0581741      0.0036263214   1.0464167      0            
    690000   1.0476708      0.0045602325   1.0360301      0            
    691000   0.94830227     0.0032336918   0.93776557     0            
    692000   0.94369735     0.0043511028   0.93321182     0            
    693000   0.90212919     0.0029402664   0.89210554     0            
    694000   0.98885996     0.0039090683   0.97788597     1.3340218e-05
    695000   0.98178102     0.0041133357   0.97087234     0            
    696000   1.0581737      0.0046492848   1.0458078     -0.00060839852
    697000   1.0169526      0.0049250892   1.0064496      0.00079654455
    698000   0.98756991     0.0040866541   0.97659691     0            
    699000   1.1035106      0.0043177126   1.0912493      0            
    700000   0.99891524     0.0051022082   0.98450675    -0.0033094328 
    701000   1.0098453      0.0032062358   0.99862483     0            
    702000   1.0098695      0.0046883999   0.99864869     0            
    703000   1.0289485      0.0035429425   1.0175157      0            
    704000   1.0039733      0.0040009436   0.992818       0            
    705000   0.97688332     0.0031795583   0.96389957    -0.0021294937 
    706000   1.0067679      0.0037889273   0.99558161     0            
    707000   1.0724484      0.0032174065   1.0605323      0            
    708000   1.0072615      0.0034784551   0.99606971     0            
    709000   1.070625       0.0047328209   1.0587291      0            
    710000   0.99963737     0.0040497538   0.9902123      0.0016820121 
    711000   0.95644904     0.0037802705   0.94582183     0            
    712000   0.95980006     0.0043091327   0.94707681    -0.002058802  
    713000   1.0284405      0.0035938838   1.0118235     -0.0051898809 
    714000   0.99748876     0.004169639    0.98193057    -0.0044749799 
    715000   0.99175218     0.0035577804   0.97958744    -0.0011452664 
    716000   0.99680185     0.0040046007   0.98573026     3.9818645e-06
    717000   0.9211759      0.003558605    0.91094061     0            
    718000   0.95744969     0.0052962106   0.94626201    -0.00054935214
    719000   0.96900379     0.0036964082   0.95831958     8.2504185e-05
    720000   1.0690626      0.0038235513   1.0569493     -0.00023478403
    721000   1.0950116      0.0044907467   1.0831161      0.00027123212
    722000   0.89416399     0.0033097315   0.88229882    -0.0019300193 
    723000   1.0165201      0.0035043982   1.0027618     -0.0024636083 
    724000   0.92438707     0.003306876    0.91411611     9.5577984e-09
    725000   0.98006277     0.003789064    0.96917318     0            
    726000   1.0049945      0.00534405     0.98977125    -0.0040566296 
    727000   1.0253049      0.0034856004   1.0115391     -0.002373518  
    728000   0.99579886     0.0040777299   0.98232892    -0.0024055148 
    729000   1.0437124      0.0041496516   1.029827      -0.0022886055 
    730000   1.0435748      0.0046336011   1.0273169     -0.004662627  
    731000   1.0237231      0.0050713243   1.0127226      0.00037419054
    732000   0.90055509     0.0042564205   0.89054892     0            
    733000   1.0205717      0.0044273217   1.009232       0            
    734000   0.93277225     0.0042809674   0.92240812     0            
    735000   1.0089278      0.0047521167   0.9977175      0            
    736000   1.1077272      0.0042901821   1.0954191      0            
    737000   0.99725539     0.0047299706   0.98678031     0.00060553497
    738000   0.92645406     0.0032244791   0.91591666    -0.00024346646
    739000   1.0596761      0.0042302596   1.0477271     -0.00017478024
    740000   0.98169385     0.0041592081   0.96666552    -0.0041206183 
    741000   0.97854077     0.0041614201   0.96476036    -0.0029077286 
    742000   0.98052558     0.0033927418   0.96633046    -0.0033003922 
    743000   0.99425871     0.0040791134   0.98201564    -0.0011957503 
    744000   0.90286873     0.0049227941   0.89283686     0            
    745000   0.97512834     0.002905886    0.96429358     0            
    746000   1.0383002      0.0048063404   1.0248477     -0.0019158608 
    747000   0.92616923     0.003276079    0.91344044    -0.0024380225 
    748000   0.86614627     0.0037558622   0.85652242     0            
    749000   1.037808       0.0050273052   1.0252048     -0.0010719716 
    750000   1.0246344      0.0037217083   1.0112663     -0.0019832955 
    751000   0.99776177     0.0039388353   0.98667553     0            
    752000   1.0589726      0.0044556803   1.0472062      0            
    753000   1.0627908      0.0037507347   1.0501502     -0.00083183357
    754000   0.96516832     0.0038806343   0.95444422     0            
    755000   0.96042226     0.0041016187   0.9497509      0            
    756000   1.0016345      0.0038725169   0.99050524     0            
    757000   1.0751744      0.0033262978   1.063228       0            
    758000   0.95142838     0.0041991406   0.94181739     0.00096043386
    759000   0.99054944     0.0050263871   0.9796929      0.00014956487
    760000   1.0206192      0.0041588389   1.0073231     -0.0019559659 
    761000   1.016286       0.0037158375   1.0049005     -9.3368092e-05
    762000   0.97716249     0.0036908792   0.96630513     0            
    763000   1.0626101      0.0048253835   1.0517754      0.00097214282
    764000   0.95221615     0.0043445525   0.94163597     0            
    765000   0.97019012     0.0030990456   0.9609551      0.0015448795 
    766000   1.029626       0.0034753717   1.0187077      0.00052191269
    767000   0.95067508     0.004073052    0.94011203     0            
    768000   1.0567643      0.0047265015   1.0450225      0            
    769000   1.0428159      0.0036480305   1.0312291      0            
    770000   0.89466937     0.0029809244   0.88337799    -0.0013506106 
    771000   1.001752       0.0034861619   0.98998813    -0.0006332971 
    772000   0.97987756     0.0036522818   0.96899003     0            
    773000   1.056357       0.0043939895   1.0455181      0.00089841025
    774000   1.0206131      0.0040227599   1.0113118      0.002038852  
    775000   1.1363443      0.0039942856   1.1237183      0            
    776000   0.96308163     0.0037634105   0.95238072     0            
    777000   0.96964292     0.0048289442   0.95886911     0            
    778000   0.99229903     0.0043585377   0.98127348     0            
    779000   0.99614967     0.0039992324   0.98508134     0            
    780000   1.0009659      0.0040453131   0.98984403     0            
    781000   0.96662146     0.0047688006   0.95588122     0            
    782000   1.0741904      0.0045593483   1.062255       0            
    783000   0.92047834     0.0028207782   0.91025081     0            
    784000   0.95961489     0.002892605    0.9489525      0            
    785000   0.99640173     0.0037187738   0.98559771     0.00026711013
    786000   0.97700208     0.0033588336   0.9661465      0            
    787000   0.97991059     0.004226156    0.9690227      0            
    788000   1.0528797      0.0048453322   1.0411811      0            
    789000   1.0373958      0.0048155399   1.0269716      0.0011023895 
    790000   1.1438335      0.0055626951   1.1311242      0            
    791000   1.0317013      0.0038863237   1.020238       0            
    792000   1.0446674      0.003483352    1.03306        0            
    793000   0.94812987     0.0039455671   0.93759509     0            
    794000   0.96706955     0.0034629923   0.95632433     0            
    795000   0.97329419     0.0037881274   0.96247985     4.2156515e-08
    796000   1.0753375      0.0036409304   1.0618075     -0.0015818567 
    797000   0.9875608      0.0035024668   0.97588543    -0.00070246415
    798000   1.0690447      0.0043822874   1.0555341     -0.0016322616 
    799000   0.99198097     0.0029715887   0.98083232    -0.00012663391
    800000   0.9935553      0.0036774115   0.98285831     0.00034251836
    801000   0.9956125      0.0036957163   0.98230009    -0.0022500534 
    802000   1.036692       0.0039820822   1.0251732      0            
    803000   0.93778692     0.0040785215   0.92736707     0            
    804000   0.98962594     0.0045439629   0.97629635    -0.0023337475 
    805000   1.0989241      0.0050723683   1.0843278     -0.0023859715 
    806000   1.0207342      0.0047065737   1.0084546     -0.00093811541
    807000   1.0390206      0.0044119132   1.0258423     -0.0016335478 
    808000   1.0677954      0.0040030189   1.0558763     -5.4638115e-05
    809000   1.0899879      0.003293212    1.0778769      0            
    810000   1.014025       0.0045509197   1.0032578      0.00049975541
    811000   0.95443834     0.0041903204   0.94383347     0            
    812000   0.98694993     0.0032892024   0.97587877    -0.00010505295
    813000   1.0351917      0.0044400504   1.0212206     -0.002468998  
    814000   0.9463022      0.0035007371   0.93323042    -0.0025573109 
    815000   1.0654658      0.0044965921   1.051914      -0.0017132121 
    816000   1.0898098      0.004499112    1.0744755     -0.0032253677 
    817000   0.88184697     0.0025065007   0.86957981    -0.0024688627 
    818000   0.93340046     0.0045942474   0.92304043     1.1092366e-05
    819000   1.036403       0.0040765824   1.0248837     -3.770352e-06 
    820000   1.0418749      0.0043122184   1.0286589     -0.001639653  
    821000   0.97228345     0.0033626166   0.9614803      0            
    822000   1.0174253      0.0037116829   1.0061206      0            
    823000   1.0568446      0.0049305054   1.0451019      0            
    824000   0.903739       0.0041392447   0.89624297     0.0025455091 
    825000   1.0638         0.0039046464   1.0495099     -0.0024701428 
    826000   1.036744       0.0041414257   1.0229252     -0.0022993753 
    827000   0.90913505     0.004236092    0.89662055    -0.0024129997 
    828000   1.0153652      0.0046054797   1.0009717     -0.0031117116 
    829000   1.0316968      0.0042186459   1.0177645     -0.0024690533 
    830000   0.96222177     0.0045731999   0.95095027    -0.00058014744
    831000   0.90426353     0.0032800746   0.89421616     0            
    832000   0.96042287     0.0040848837   0.94975153     2.6630881e-08
    833000   1.0478158      0.0044854193   1.0361734      0            
    834000   1.0307038      0.0039596905   1.0192515      0            
    835000   0.94682456     0.0051361157   0.93630428     0            
    836000   0.9940801      0.00463538     0.98303476     0            
    837000   1.0134275      0.0033273544   1.0013109     -0.00085628685
    838000   1.0207694      0.0035086416   1.0094767      4.9190926e-05
    839000   1.0487123      0.0040070259   1.0370599      0            
    840000   1.0179927      0.0045322998   1.0049939     -0.0016878217 
    841000   0.98347731     0.0037601338   0.97024328    -0.0023064963 
    842000   1.0382728      0.0038304248   1.0263466     -0.00038976647
    843000   1.0527231      0.0040811972   1.0385571     -0.0024691212 
    844000   0.97256338     0.0045806863   0.96175712     0            
    845000   0.9484941      0.0044192172   0.93795528     0            
    846000   1.0449148      0.0045050138   1.0333046      0            
    847000   0.96034197     0.0044853866   0.9496715      0            
    848000   1.0071806      0.003811803    0.99598971     0            
    849000   0.98861557     0.0045014287   0.97763095     0            
    850000   1.0556752      0.0045670977   1.0439455      0            
    851000   0.97643196     0.0036734359   0.96558272     0            
    852000   0.93547769     0.0030584067   0.92508349     0            
    853000   0.951777       0.0040328195   0.9412017      0            
    854000   0.9865389      0.0035523821   0.97557736     0            
    855000   0.85197539     0.0030690266   0.842509       0            
    856000   1.0386657      0.0043563816   1.0247505     -0.0023744515 
    857000   1.011051       0.0039186785   0.99981708     0            
    858000   1.0239144      0.0039735128   1.0125376      0            
    859000   1.021351       0.0040959185   1.0100027      0            
    860000   0.98604139     0.004706628    0.97508538     0            
    861000   0.99380421     0.0045084946   0.98276194     0            
    862000   1.0169622      0.0039413079   1.0056626      0            
    863000   1.1339636      0.0044171195   1.121364       0            
    864000   1.0010604      0.0037391055   0.98890568    -0.001031813  
    865000   1.0231066      0.004224308    1.0101086     -0.0016301328 
    866000   1.0239557      0.0039999361   1.0102113     -0.0023671053 
    867000   0.97091571     0.0039656637   0.95811271    -0.002015041  
    868000   0.98182873     0.0028752737   0.97093043     1.0905238e-05
    869000   0.99667517     0.0040940915   0.9855969     -4.1031528e-06
    870000   1.0213237      0.0037143331   1.0086241     -0.0013515586 
    871000   1.0487252      0.0043828849   1.0370727      0            
    872000   0.94571464     0.0043638288   0.9352067      0            
    873000   1.0438581      0.0057962134   1.0298137     -0.0024460345 
    874000   1.0099591      0.0050411302   0.99897543     0.00023807097
    875000   0.94596279     0.0035375835   0.93300214    -0.0024499576 
    876000   0.9680016      0.003284208    0.95724603     0            
    877000   1.0647661      0.0043510761   1.0508087     -0.0021266044 
    878000   1.021347       0.0043669826   1.0079102     -0.0020884304 
    879000   0.99042253     0.0040324233   0.97941783     0            
    880000   0.97351142     0.0033980417   0.96269462     0            
    881000   0.95089072     0.0044461965   0.94032527     0            
    882000   0.98637054     0.003750491    0.97541087     0            
    883000   1.0083219      0.0044398507   0.99711833     0            
    884000   1.0469063      0.0047273832   1.035301       2.7040219e-05
    885000   1.0523623      0.0046937247   1.0406694      0            
    886000   0.97790831     0.0040932103   0.96687718    -0.00016548124
    887000   1.0834763      0.004376068    1.0681648     -0.0032729097 
    888000   0.95717093     0.0032413792   0.9465357      0            
    889000   1.0827432      0.0038929974   1.0707127      0            
    890000   0.91824819     0.0042245928   0.90804544     0            
    891000   0.93582011     0.0042858366   0.9249789     -0.00044321201
    892000   1.0425228      0.003275532    1.0321315      0.0011923093 
    893000   0.97506521     0.0054035405   0.96423116     0            
    894000   0.97818396     0.0030666526   0.96731525     0            
    895000   0.88571555     0.0042586209   0.87587427     0            
    896000   1.0572118      0.0041343982   1.045465       0            
    897000   0.98003217     0.0040299246   0.96914292     0            
    898000   1.0179305      0.0046752422   1.0066202      0            
    899000   0.84302055     0.0038394656   0.83141499    -0.0022386597 
    900000   1.0233007      0.0043292927   1.0119307      0            
    901000   0.99027248     0.0043703467   0.97926945     0            
    902000   0.93514305     0.0037908746   0.92475258     0            
    903000   0.99769943     0.0041343157   0.98719936     0.00058547887
    904000   1.0114643      0.0044344659   1.0002258      0            
    905000   0.90929089     0.0035700275   0.89696165    -0.0022260151 
    906000   1.0262441      0.0045225631   1.0106232     -0.0042182265 
    907000   0.99514756     0.0047370105   0.98408945    -9.2181057e-07
    908000   1.0468631      0.0034876406   1.0352313      0            
    909000   0.98107229     0.0033521858   0.97017149     0            
    910000   1.0059987      0.0044177752   0.99482093     0            
    911000   1.0726433      0.0039435659   1.060725       0            
    912000   1.1438581      0.00484561     1.1311486      0            
    913000   1.0411341      0.0032186924   1.0295659      0            
    914000   1.0722701      0.0053890903   1.060356       0            
    915000   1.0277447      0.0043110221   1.0163254      0            
    916000   1.0108753      0.0029261217   0.99940349    -0.0002398985 
    917000   1.0110055      0.0040333154   0.99977291     7.8391082e-07
    918000   0.89962131     0.0038064346   0.88750629    -0.0021192334 
    919000   0.9723696      0.0039283382   0.95929249    -0.0022729987 
    920000   0.99126632     0.0037419575   0.98025225     0            
    921000   1.0043432      0.0043134726   0.99216185    -0.0010219876 
    922000   0.9735289      0.0037132892   0.96256648    -0.00014543103
    923000   0.96971149     0.0038338259   0.95893692     0            
    924000   0.96447635     0.0045014619   0.95225179    -0.0015081583 
    925000   0.92880097     0.0042523999   0.91677819    -0.001702769  
    926000   0.95802868     0.0044456002   0.94562643    -0.0017574957 
    927000   0.99342423     0.0042300716   0.98003375    -0.0023524339 
    928000   0.98685523     0.003978115    0.97115182    -0.0047383501 
    929000   1.0493956      0.0049041813   1.0363406     -0.0013949898 
    930000   0.97666096     0.0040763936   0.96491557    -0.00089360051
    931000   0.97958128     0.0040703323   0.96763054    -0.0010665117 
    932000   1.120158       0.0048294742   1.1057107     -0.0020010204 
    933000   1.0699783      0.0040699892   1.0577011     -0.00038860298
    934000   1.0026932      0.0039232768   0.99155219     0            
    935000   0.98307165     0.0035715342   0.97214863     0            
    936000   1.0626152      0.0036893786   1.053167       0.0023586087 
    937000   1.0472873      0.0036352696   1.0350228     -0.00062805355
    938000   1.028597       0.0046714039   1.0172307      6.2514302e-05
    939000   1.0302436      0.0044119173   1.0187965      0            
    940000   0.95901018     0.0037806907   0.94835451     0            
    941000   0.99327939     0.0043438846   0.98224296     0            
    942000   1.0534961      0.0044494253   1.0417906      0            
    943000   0.86615053     0.003082428    0.85510174    -0.0014249043 
    944000   1.0030907      0.0037993902   0.99219373     0.00024844619
    945000   1.0212235      0.0041038112   1.0120919      0.0022153325 
    946000   1.0914308      0.0048588032   1.0793038      0            
    947000   0.96407721     0.0028375946   0.95367252     0.00030728077
    948000   1.0560171      0.004118325    1.043621      -0.00066256218
    949000   1.0211102      0.0042329058   1.0097645      0            
    950000   1.0669144      0.0038176218   1.0550598      0            
    951000   0.95856487     0.0044882096   0.95062889     0.0027147451 
    952000   1.0614051      0.0048341132   1.0496118      1.4972242e-07
    953000   1.0068008      0.0030798404   0.99828056     0.0026664125 
    954000   1.0381836      0.004931275    1.0266483      0            
    955000   1.0265672      0.0033315621   1.013435      -0.0017258971 
    956000   0.95602158     0.0044983984   0.94293026    -0.0024688602 
    957000   0.97720949     0.0040333239   0.96633976    -1.1840211e-05
    958000   0.98545182     0.0051527513   0.97255279    -0.0019495668 
    959000   1.0174497      0.0039127428   1.0018662     -0.0042784514 
    960000   1.0127023      0.0040015224   0.99759535    -0.0038547225 
    961000   1.0383405      0.0056831091   1.0230181     -0.0037852861 
    962000   1.0021705      0.0044285234   0.99068139    -0.00035391094
    963000   1.0051736      0.0043074061   0.99320329    -0.00080171957
    964000   1.0299322      0.0037484092   1.0183912     -9.7323963e-05
    965000   1.0288165      0.0037408745   1.0173271     -5.8119258e-05
    966000   1.0496562      0.0040471476   1.0371434     -0.00084997914
    967000   1.0136092      0.0035443821   1.0080488      0.0057019772 
    968000   0.96039137     0.0043502259   0.94973745     1.7096364e-05
    969000   1.029737       0.0049758941   1.0182954      0            
    970000   1.1351126      0.00446857     1.1225003      0            
    971000   1.0584353      0.0051926219   1.0466749      0            
    972000   0.96236918     0.0040178489   0.95167619     0            
    973000   1.102817       0.0042797663   1.0905635      0            
    974000   1.0062907      0.0044016484   0.99212453    -0.0029851175 
    975000   0.98390723     0.0040050213   0.97220703    -0.00076789902
    976000   1.062492       0.0035800766   1.0510151      0.00032852361
    977000   0.96739852     0.0041900651   0.95554246    -0.0011071889 
    978000   0.97463664     0.0033218723   0.96191019    -0.0018971592 
    979000   0.95153401     0.0026734244   0.94096141     0            
    980000   0.96989878     0.0035669856   0.95768825    -0.0014338748 
    981000   0.87388969     0.0034392424   0.86417981     0            
    982000   1.0748577      0.004871618    1.0615507     -0.0013641439 
    983000   1.0037039      0.003416949    0.99285521     0.0003035317 
    984000   0.99793722     0.0043048433   0.98652781    -0.00032121132
    985000   1.0585097      0.0038041229   1.0467494      8.6783573e-07
    986000   1.0451292      0.0038592963   1.0340191      0.00050239956
    987000   1.0249264      0.0037858222   1.0116109     -0.0019274158 
    988000   0.99416477     0.0033678484   0.9831185      0            
    989000   0.99383696     0.0041886235   0.98194343    -0.00085089922
    990000   1.0229762      0.0044316129   1.0116098      0            
    991000   0.88387085     0.0043624322   0.87160162    -0.0024484407 
    992000   0.976758       0.0035448461   0.96403885    -0.0018662826 
    993000   1.0226779      0.0049372844   1.0086538     -0.0026610749 
    994000   1.0027119      0.004527248    0.99153236    -3.8262264e-05
    995000   1.02164        0.0035183897   1.0103838      9.5338265e-05
    996000   1.0296639      0.0037856986   1.0182231      0            
    997000   1.0084314      0.004361604    0.99722662     0            
    998000   1.0428626      0.0050329317   1.0312752      0            
    999000   1.0302332      0.004553729    1.0187861      0            
   1000000   1.0175566      0.0044068107   1.0060254     -0.00022502309
Loop time of 18.6126 on 1 procs for 1000000 steps with 405 atoms

Performance: 46420047.688 tau/day, 53726.907 timesteps/s
98.1% CPU use with 1 MPI tasks x no OpenMP threads

MPI task timing breakdown:
Section |  min time  |  avg time  |  max time  |%varavg| %total
---------------------------------------------------------------
Pair    | 0.8688     | 0.8688     | 0.8688     |   0.0 |  4.67
Bond    | 0.045656   | 0.045656   | 0.045656   |   0.0 |  0.25
Neigh   | 3.5975     | 3.5975     | 3.5975     |   0.0 | 19.33
Comm    | 0.96146    | 0.96146    | 0.96146    |   0.0 |  5.17
Output  | 0.38265    | 0.38265    | 0.38265    |   0.0 |  2.06
Modify  | 11.305     | 11.305     | 11.305     |   0.0 | 60.74
Other   |            | 1.452      |            |       |  7.80

Nlocal:            405 ave         405 max         405 min
Histogram: 1 0 0 0 0 0 0 0 0 0
Nghost:             67 ave          67 max          67 min
Histogram: 1 0 0 0 0 0 0 0 0 0
Neighs:              3 ave           3 max           3 min
Histogram: 1 0 0 0 0 0 0 0 0 0

Total # of neighbors = 3
Ave neighs/atom = 0.0074074074
Ave special neighs/atom = 0
Neighbor list builds = 212500
Dangerous builds = 0
Total wall time: 0:00:18
