fix fLANG all langevin 1.0 1.0 1.0 100
fix NVE all nve 1.0 1.0 1.0

    ##======================================##
    ## Output
    ##======================================##

thermo 1000
thermo_style custom step temp press etotal epair
thermo_modify flush yes
timestep 0.01

    ##======================================##
    ## Equilibration before output
    ##======================================##


    ##======================================##
    ## Run with output
    ##======================================##

fix enforce_2d all enforce2d
dump 2 all custom 1000 Results_eps_attr10_eps_rep0_eps_rep_weak0_range2_attr_with_repFalse_n_synapsin300_n_vesicles0/Movie_2d_eps_attr10_eps_rep0_eps_rep_weak0_range2_attr_with_repFalse_n_synapsin300_n_vesicles0.xyz id type mol x y z
run 1000000
Generated 0 of 1 mixed pair_coeff terms from geometric mixing rule
Neighbor list info ...
  update every 1 steps, delay 1 steps, check yes
  max neighbors/atom: 2000, page size: 100000
  master list distance cutoff = 3.3
  ghost atom cutoff = 3.3
  binsize = 1.65, bins = 190 190 1
  1 neighbor lists, perpetual/occasional/extra = 1 0 0
  (1) pair cosine/squared, perpetual
      attributes: half, newton on
      pair build: half/bin/newton
      stencil: half/bin/2d
      bin: standard
Per MPI rank memory allocation (min/avg/max) = 7.419 | 7.419 | 7.419 Mbytes
   Step          Temp          Press          TotEng         E_pair    
         0   1              0.00613376     0.99833333     0            
      1000   1.1197467      0.0064893049   0.8268762     -0.29100425   
      2000   1.0906206      0.005679599    0.2040302     -0.88477272   
      3000   1.0647218      0.0052146986  -0.63320321    -1.6961505    
      4000   1.0593781      0.0048469635  -1.2809002     -2.3385127    
      5000   1.1097726      0.004943776   -1.6897855     -2.7977086    
      6000   1.0219583      0.0042259655  -2.345316      -3.365571     
      7000   1.0231118      0.0038252866  -2.7754379     -3.7968446    
      8000   0.95579119     0.003528905   -3.2399765     -4.1941747    
      9000   1.0759964      0.0039192097  -3.5741927     -4.6483957    
     10000   1.0348272      0.0028273129  -4.1167901     -5.1498926    
     11000   0.99221247     0.0030122375  -4.8708487     -5.8614075    
     12000   1.0899508      0.003695494   -5.2724352     -6.3605694    
     13000   0.97307014     0.0021205846  -5.7873002     -6.7587486    
     14000   0.95874945     0.0023681574  -6.1843794     -7.141531     
     15000   1.1132067      0.0031270934  -6.3976481     -7.5089995    
     16000   1.0063636      0.0029568359  -6.8303891     -7.8350754    
     17000   1.0474181      0.0024154392  -6.8395394     -7.8852118    
     18000   0.95933914     0.0022437705  -7.2881797     -8.24592      
     19000   1.0193305      0.0027386517  -7.3507095     -8.3683411    
     20000   1.0058198      0.0023938552  -7.6766312     -8.6807746    
     21000   1.0158111      0.0024861928  -7.7330897     -8.7472078    
     22000   1.0363405      0.0018562034  -8.0676757     -9.102289     
     23000   0.98476459     0.0022141473  -8.401736      -9.3848593    
     24000   1.0949938      0.0023046077  -8.414756      -9.5079248    
     25000   1.0080317      0.0023107421  -8.8758928     -9.8822444    
     26000   1.064625       0.0023511713  -8.8915815     -9.9544321    
     27000   1.0177942      0.0018005534  -8.9715328     -9.9876307    
     28000   0.95884124     0.0016778719  -9.167571      -10.124814    
     29000   0.93422286     0.00076820452 -9.2702592     -10.202925    
     30000   0.98626911     0.0016366971  -9.353713      -10.338338    
     31000   1.0463237      0.0021224276  -9.423848      -10.468428    
     32000   1.0183121      0.0020591138  -9.7697604     -10.786375    
     33000   0.97783293     0.0015524129  -10.330272     -11.306475    
     34000   1.0339714      0.0018742244  -10.382704     -11.414952    
     35000   0.96528137     0.00082228095 -11.062663     -12.026335    
     36000   1.0874068      0.0020819143  -11.320943     -12.406538    
     37000   1.0337559      0.0017141918  -11.688686     -12.720719    
     38000   1.0088496      0.0014106478  -11.916719     -12.923887    
     39000   0.97705228     0.0014725933  -12.338249     -13.313673    
     40000   0.97269344     0.001006969   -12.311353     -13.282425    
     41000   0.97053259     0.00069247904 -12.416989     -13.385904    
     42000   0.9668316      0.001226692   -12.476729     -13.441949    
     43000   1.0221577      0.0016557882  -12.421041     -13.441495    
     44000   1.0507572      0.0021454207  -12.626662     -13.675668    
     45000   0.99218599     0.0016583957  -12.740226     -13.730758    
     46000   1.0249909      0.0012286039  -12.995161     -14.018443    
     47000   1.0645852      0.0013843744  -13.03256      -14.09537     
     48000   1.0081244      0.0014918199  -13.353587     -14.360031    
     49000   1.0534037      0.0014992224  -13.526913     -14.578561    
     50000   1.0957907      0.0015852315  -13.465592     -14.559557    
     51000   0.95289713     0.00080092589 -13.65119      -14.602499    
     52000   1.0066517      0.001262336   -13.823801     -14.828775    
     53000   0.99492791     0.0014352106  -13.868009     -14.861278    
     54000   1.0153014      0.0012418188  -13.816929     -14.830538    
     55000   1.0248101      0.0013859104  -13.805669     -14.828771    
     56000   1.0182186      0.0015441916  -13.856061     -14.872583    
     57000   0.99044448     0.00069167091 -13.969607     -14.958401    
     58000   0.98683913     0.0013201269  -14.087213     -15.072408    
     59000   1.0604941      0.0016389577  -14.723002     -15.781728    
     60000   0.98294525     0.00099216416 -15.024897     -16.006204    
     61000   0.99707594     0.001519605   -15.236574     -16.231988    
     62000   1.0365776      0.0013849641  -15.160006     -16.194856    
     63000   0.99767717     0.001140762   -15.213572     -16.209587    
     64000   0.97365637     0.0010461976  -15.311271     -16.283304    
     65000   1.0080561      0.0014917268  -15.392232     -16.398608    
     66000   1.0133332      0.0010541022  -15.632003     -16.643647    
     67000   1.0766706      0.0013673086  -15.562619     -16.637496    
     68000   0.98845785     0.00081047774 -15.647162     -16.633973    
     69000   1.0220641      0.0011401209  -15.627616     -16.647976    
     70000   0.99299005     0.00067571986 -15.692771     -16.684106    
     71000   0.97053965     0.001065088   -15.802305     -16.771227    
     72000   0.94846503     0.00068638214 -15.813174     -16.760059    
     73000   1.0177351      0.0010562891  -15.911717     -16.927756    
     74000   1.0287014      0.0013123248  -16.15047      -17.177457    
     75000   1.0654282      0.0014172912  -16.106736     -17.170388    
     76000   1.0192022      0.00072587082 -16.117109     -17.134613    
     77000   1.0640401      0.001016817   -16.057288     -17.119555    
     78000   0.92376741     0.00070827204 -16.438501     -17.360729    
     79000   1.0056989      0.00046462343 -16.30338      -17.307403    
     80000   1.0890166      0.0012021236  -16.424018     -17.51122     
     81000   1.0200411      0.00033431591 -16.72393      -17.742271    
     82000   0.9800863      0.0010885527  -16.836535     -17.814988    
     83000   0.99954812     0.0013930624  -16.87032      -17.868203    
     84000   0.9395783      0.00083001656 -16.898771     -17.836784    
     85000   1.0165909      0.001205082   -16.826699     -17.841596    
     86000   1.004722       0.00097794644 -16.84325      -17.846298    
     87000   0.9977229      0.00037685122 -16.791726     -17.787786    
     88000   0.99446816     0.001197018   -17.622967     -18.615778    
     89000   0.95242101     0.0010698136  -17.68737      -18.638203    
     90000   0.9866606      0.00014751672 -17.848063     -18.833079    
     91000   1.0140045      0.00093873478 -17.883248     -18.895563    
     92000   1.0356218      0.00061231099 -17.822636     -18.856532    
     93000   0.99678019     0.0011165014  -17.914876     -18.909995    
     94000   0.93842611     0.00020769927 -17.93756      -18.874423    
     95000   0.97695763     0.00019258658 -17.868893     -18.844222    
     96000   1.0005298      0.0010381634  -17.913594     -18.912456    
     97000   1.0266126      0.0010659802  -17.867591     -18.892492    
     98000   0.95074414     0.00024259823 -17.91875      -18.86791     
     99000   1.0315886      0.00091809155 -18.775185     -19.805054    
    100000   1.0332161      0.00089504284 -18.781324     -19.812819    
    101000   1.0811162      0.0016087624  -18.76811      -19.847425    
    102000   1.0190369      0.0011466727  -18.82761      -19.844949    
    103000   1.0087586      0.00099701353 -18.83357      -19.840648    
    104000   1.0360602      0.0012875799  -18.814742     -19.849075    
    105000   1.0666708      0.00094785805 -19.272829     -20.337722    
    106000   1.0328699      0.0014827474  -19.37765      -20.408798    
    107000   0.93235852     0.0002428594  -19.414173     -20.344978    
    108000   0.87082269     1.5163371e-05 -19.483004     -20.352375    
    109000   1.0811758      0.0017040136  -19.319476     -20.39885     
    110000   1.0636867      0.0015827898  -19.396529     -20.458442    
    111000   1.0120624      0.0013831137  -19.940397     -20.950773    
    112000   1.0639786      0.0016349286  -19.887985     -20.95019     
    113000   0.95906004     0.00031918344 -19.937601     -20.895062    
    114000   0.89656872    -0.00018743302 -19.973067     -20.868142    
    115000   1.043989       0.00067529431 -19.837538     -20.879787    
    116000   0.92758419     0.0004962171  -20.118028     -21.044066    
    117000   0.9522478      0.00098452381 -20.114547     -21.065208    
    118000   0.95639059     0.00059417025 -20.081951     -21.036748    
    119000   1.0480454      0.0010022666  -19.973019     -21.019318    
    120000   0.98543086     0.0017724445  -20.134754     -21.118543    
    121000   0.95236018     0.0004610951  -20.755275     -21.706048    
    122000   0.98633643     0.0012927832  -20.751614     -21.736307    
    123000   0.99673447     0.0014105558  -20.770844     -21.765917    
    124000   1.0081435      0.00056420998 -20.665559     -21.672023    
    125000   0.95374433     0.00023322763 -20.730818     -21.682973    
    126000   1.1063318      0.00064424923 -21.002878     -22.107365    
    127000   0.94478939     0.00031444327 -21.254333     -22.197547    
    128000   0.98890261     0.00017203448 -21.170188     -22.157442    
    129000   0.98389111     0.00050419055 -21.171832     -22.154084    
    130000   0.97473213     0.00041938753 -21.410062     -22.38317     
    131000   1.0814051      0.0011683963  -21.311872     -22.391474    
    132000   1.0013691      0.00086450799 -21.754011     -22.753711    
    133000   0.98842928     0.00045385058 -21.739288     -22.72607     
    134000   0.99403579     0.00068382145 -22.103128     -23.095507    
    135000   0.96708586     0.0004347752  -22.128928     -23.094402    
    136000   1.0128378      0.00068546851 -22.078569     -23.089719    
    137000   1.0525984      0.00047180709 -22.155294     -23.206138    
    138000   0.90524488     0.00043288599 -23.568181     -24.471917    
    139000   0.9669402      0.00062510008 -23.497463     -24.462791    
    140000   1.0488926      0.0011947029  -23.416965     -24.464109    
    141000   1.0896706      0.0013472346  -23.370053     -24.457908    
    142000   1.017795       0.00092159274 -23.442863     -24.458962    
    143000   1.0665829      0.001475791   -23.680992     -24.745798    
    144000   1.0287896      0.000816521   -23.687744     -24.714819    
    145000   0.97481811     0.0010176774  -23.868532     -24.841726    
    146000   0.98221927     0.00072867328 -24.032793     -25.013375    
    147000   0.98015426     0.00050906009 -24.0264       -25.00492     
    148000   0.95481873     0.00041195666 -24.047897     -25.001125    
    149000   0.97934313     0.0010280669  -24.520395     -25.498105    
    150000   1.0230694      0.00098476937 -24.439794     -25.461159    
    151000   1.0551778      0.00067194843 -24.382806     -25.436226    
    152000   1.0029218      0.00069006136 -24.809453     -25.810704    
    153000   1.0142341      0.0011634832  -24.829657     -25.842201    
    154000   1.0368059      0.0003626601  -24.737029     -25.772107    
    155000   0.92496798     0.00073202516 -25.237442     -26.160869    
    156000   1.0527641      0.00049328586 -25.028871     -26.079881    
    157000   1.0566805      0.00098310783 -25.064242     -26.119161    
    158000   0.95603236    -7.3668117e-05 -25.125125     -26.079564    
    159000   0.98464797     0.00060879026 -25.137746     -26.120753    
    160000   0.97253456     0.00057846258 -25.152568     -26.123482    
    161000   0.92652837    -0.00038373719 -25.272054     -26.197038    
    162000   1.204863       0.0010062826  -26.074443     -27.277298    
    163000   1.0218859      0.0014103408  -26.383599     -27.403782    
    164000   1.0541816      0.0013684938  -26.336213     -27.388638    
    165000   0.88801024     0.00016016933 -26.918075     -27.804605    
    166000   1.0418479      0.00096085554 -26.761252     -27.801364    
    167000   1.0056204      0.00015021702 -26.743953     -27.747898    
    168000   1.0334918      0.0006634144  -26.737956     -27.769726    
    169000   1.0447072      3.0757659e-05 -27.488505     -28.531471    
    170000   0.99212792     0.00062016718 -27.615768     -28.606243    
    171000   0.91688043     0.00015400205 -27.699444     -28.614797    
    172000   0.9671862      0.00042563119 -27.653432     -28.619006    
    173000   1.0878464      0.0012027334  -28.232097     -29.318131    
    174000   1.0764866      0.00029766903 -28.175142     -29.249835    
    175000   0.94018965     0.00068092836 -28.418227     -29.35685     
    176000   0.98475435     0.0010343957  -28.385437     -29.36855     
    177000   0.95978817    -2.5950897e-05 -28.342419     -29.300607    
    178000   1.0447846      0.0013483828  -28.320238     -29.363281    
    179000   1.0388586      0.00033617463 -28.253476     -29.290603    
    180000   0.98681848     0.0003827392  -28.331034     -29.316208    
    181000   0.93408129     0.00031512359 -28.390476     -29.323       
    182000   1.060225       0.00095343134 -28.270934     -29.329392    
    183000   1.0090194      0.00044226204 -28.304639     -29.311977    
    184000   0.98472195     0.00058176173 -28.352223     -29.335304    
    185000   0.99257352     0.00094923754 -29.055502     -30.046421    
    186000   0.99400903     0.0014369052  -29.09261      -30.084962    
    187000   0.97614362     0.00085405251 -29.063886     -30.038403    
    188000   1.0697916      0.00091533378 -28.940531     -30.00854     
    189000   1.0381788      0.001137767   -29.004601     -30.041049    
    190000   1.0290758      0.00094965279 -29.004084     -30.031445    
    191000   0.99925358     2.9040604e-05 -28.976046     -29.973634    
    192000   0.94353242     7.5669725e-05 -29.065984     -30.007944    
    193000   1.0907984      0.0015164933  -29.611865     -30.700846    
    194000   1.0218634      0.00016635161 -29.615086     -30.635247    
    195000   0.96195981     0.00071620368 -29.748519     -30.708876    
    196000   1.1436042      0.00054371517 -30.21377      -31.355468    
    197000   0.99586207     0.00071218491 -30.449507     -31.443709    
    198000   1.0198179      0.00074597487 -30.417403     -31.435521    
    199000   1.0056102      0.0011780349  -30.468915     -31.472849    
    200000   1.087586       0.0016995839  -30.383295     -31.469068    
    201000   1.0349712      0.0013194885  -30.436727     -31.469974    
    202000   0.98982911     0.00021457574 -30.42504      -31.413219    
    203000   1.0325035      0.00074944759 -30.399604     -31.430387    
    204000   1.0454586      0.00040387144 -30.350843     -31.394559    
    205000   0.98128479     0.00059573528 -30.47186      -31.451509    
    206000   1.0802369      0.00089524987 -30.330335     -31.408772    
    207000   0.97196067     0.00071276201 -30.479099     -31.44944     
    208000   1.0085447      0.00053726882 -30.416808     -31.423672    
    209000   0.99657315     0.00061560506 -30.435627     -31.43054     
    210000   1.0255014      0.0010960033  -30.439672     -31.463464    
    211000   1.0364813      0.0010054788  -30.421135     -31.455889    
    212000   1.0109027      0.00023983205 -30.396648     -31.405865    
    213000   0.98037915     0.00036562451 -30.446759     -31.425504    
    214000   0.99048978     0.00044939356 -30.439669     -31.428508    
    215000   1.0472187      6.853262e-05  -30.319777     -31.365251    
    216000   0.94358932     0.00037110797 -30.516569     -31.458586    
    217000   1.0024214      0.00026674484 -30.64229      -31.643041    
    218000   0.970819       0.00080328206 -30.726397     -31.695598    
    219000   1.0210522      0.00038385005 -30.606012     -31.625363    
    220000   0.9815301      0.00017880525 -30.664285     -31.64418     
    221000   1.0460119      0.0012327443  -30.665339     -31.709608    
    222000   1.0340787      0.00052290282 -30.616945     -31.6493      
    223000   1.0111262      0.00049796923 -30.650651     -31.660092    
    224000   1.0488152      0.0011021249  -30.645421     -31.692488    
    225000   1.0159882      0.00096298447 -30.686346     -31.70064     
    226000   1.0051077      0.00027430107 -30.643482     -31.646914    
    227000   0.97641168     5.6742611e-05 -30.670638     -31.645422    
    228000   0.95344215     3.7366479e-05 -30.690825     -31.642678    
    229000   0.9918137     -0.00030920146 -30.586355     -31.576515    
    230000   1.0234911      0.00056842877 -30.599459     -31.621244    
    231000   1.1026596      0.00025478995 -30.471214     -31.572036    
    232000   1.0679129      0.0010920822  -30.601217     -31.66735     
    233000   0.99211111     0.0006280615  -30.65674      -31.647198    
    234000   0.94430218     0.00031721358 -30.722062     -31.664791    
    235000   1.0725435      0.00088688899 -30.588475     -31.659231    
    236000   0.93461277     0.00047401901 -30.755681     -31.688736    
    237000   1.0025173      0.000616975   -30.661271     -31.662117    
    238000   1.0217188      0.00047420096 -30.632424     -31.65244     
    239000   0.90987959    -0.00044790908 -31.16446      -32.072823    
    240000   0.97677435     0.00034692403 -31.119881     -32.095027    
    241000   1.014936       0.00077316333 -31.095093     -32.108338    
    242000   1.0434426      0.00099834853 -31.085247     -32.126951    
    243000   1.014708       0.00061741379 -31.084685     -32.097701    
    244000   1.0497009      0.00090408904 -31.04855      -32.096501    
    245000   0.92372073     0.00010097113 -31.169764     -32.091945    
    246000   1.0246419      0.001029135   -31.756274     -32.779208    
    247000   0.99261315     0.00082015362 -31.779012     -32.769971    
    248000   0.98008071     0.00094040547 -31.805463     -32.78391     
    249000   0.97040896     0.00052473532 -31.796849     -32.765641    
    250000   0.95280055     0.00011638744 -31.796871     -32.748083    
    251000   0.95326737     0.00041945151 -31.818652     -32.770331    
    252000   1.014125       0.00031799702 -33.386526     -34.398961    
    253000   0.95356782     0.00048806754 -33.490634     -34.442613    
    254000   1.0224442      0.00093308584 -33.423527     -34.444267    
    255000   1.0064972      0.00081680198 -33.429149     -34.433968    
    256000   1.0269447      0.00060290614 -33.388063     -34.413296    
    257000   1.0564629      0.0012363365  -33.392431     -34.447133    
    258000   0.91855751    -3.6036562e-05 -33.490634     -34.407661    
    259000   1.0350809      0.0005026689  -33.36662      -34.399975    
    260000   1.013661       0.00021383836 -33.380283     -34.392255    
    261000   1.0096918      0.00076859325 -34.628699     -35.636708    
    262000   1.0309939      0.00071162208 -34.587923     -35.617199    
    263000   0.99026883     0.00021526565 -34.613084     -35.601703    
    264000   0.91579798     5.6955894e-05 -34.707467     -35.621739    
    265000   0.99409919     0.00048769198 -34.631132     -35.623574    
    266000   1.1118511      0.0011316282  -34.50983      -35.619828    
    267000   1.030309       0.00045917358 -34.574555     -35.603147    
    268000   0.97354455     0.00046315354 -34.653241     -35.625163    
    269000   0.99554324     0.0007899863  -34.649357     -35.643241    
    270000   0.96691014     0.00040495379 -34.656644     -35.621943    
    271000   0.98486183     0.0007077868  -34.652481     -35.635701    
    272000   0.99297237     4.9536829e-05 -34.592863     -35.584181    
    273000   1.0537695      0.0017299794  -34.631295     -35.683308    
    274000   0.95725241    -0.00012232558 -34.63934      -35.594997    
    275000   0.99168927     0.00031578051 -34.619327     -35.609363    
    276000   1.033866       0.0012736931  -34.615282     -35.647425    
    277000   1.0060129      0.00093576718 -34.639733     -35.644069    
    278000   1.0299988      0.00096444238 -34.610831     -35.639113    
    279000   0.96829535     0.00059285965 -34.681309     -35.647991    
    280000   1.0152227      0.00027639287 -34.587433     -35.600964    
    281000   0.96145236    -7.8399026e-05 -34.639203     -35.599053    
    282000   1.0379131      0.0011903264  -34.618015     -35.654199    
    283000   1.0405076      0.0009569429  -34.581308     -35.620082    
    284000   1.0347825      0.00048175207 -35.059093     -36.09215     
    285000   0.97687621    -0.00030050446 -35.091211     -36.066459    
    286000   1.0415369      0.00098102547 -35.075015     -36.114816    
    287000   0.99652093     0.00057772114 -35.112471     -36.107331    
    288000   0.95394054    -1.2170345e-05 -35.130151     -36.082502    
    289000   0.97677783    -4.5017885e-05 -35.099177     -36.074327    
    290000   1.002315      -2.5615599e-05 -35.067417     -36.068061    
    291000   0.99429843     0.00011790018 -35.080265     -36.072907    
    292000   1.0891271      0.0005656107  -34.96745      -36.054762    
    293000   1.0464073      0.0008441328  -35.070827     -36.11549     
    294000   1.0267909      0.00027371251 -35.047431     -36.072511    
    295000   0.9932338      0.00088805445 -35.148208     -36.139786    
    296000   0.98513625     0.00025757583 -35.102046     -36.08554     
    297000   1.0496966      0.0007836778  -35.056709     -36.104656    
    298000   0.98865803     0.0003415066  -35.213343     -36.200353    
    299000   1.0331701      0.00050056291 -35.152127     -36.183575    
    300000   1.0524762      0.00035473852 -35.223939     -36.274662    
    301000   0.95324583     0.00072734305 -36.454307     -37.405964    
    302000   1.041443       0.00068037842 -36.310035     -37.349742    
    303000   0.97695161    -5.849367e-05  -36.796277     -37.7716      
    304000   1.0437249      0.0010093897  -36.771782     -37.813768    
    305000   1.0128586      0.00074987262 -36.822547     -37.833718    
    306000   0.9981233      4.9351451e-05 -36.78335      -37.77981     
    307000   0.99671374     0.00027948112 -36.799591     -37.794643    
    308000   1.0497891      0.00049952801 -36.745351     -37.79339     
    309000   0.96531168     0.00036330143 -36.838218     -37.801921    
    310000   1.0811384      0.0015297375  -36.767179     -37.846516    
    311000   1.0058029     -4.1981473e-05 -36.759686     -37.763813    
    312000   1.0314704      0.00090930609 -36.798794     -37.828546    
    313000   1.0960426      0.0013863902  -36.751701     -37.845917    
    314000   1.0217373      0.00069064091 -36.803846     -37.82388     
    315000   0.93335233     0.00025502836 -36.892444     -37.824241    
    316000   1.0027033      0.00025700368 -36.779833     -37.780865    
    317000   1.0292367      0.00072646387 -36.791179     -37.818701    
    318000   0.95370109    -3.5167581e-05 -36.834699     -37.786811    
    319000   1.0234834      0.0011615973  -36.818017     -37.839795    
    320000   1.0585844      0.0014506707  -36.792816     -37.849636    
    321000   0.97615956     1.6425489e-05 -36.813335     -37.787868    
    322000   0.99793315     0.00016360161 -36.782695     -37.778965    
    323000   0.97845481     0.00035142012 -36.82778      -37.804604    
    324000   1.0132032      0.00071537837 -36.81248      -37.823995    
    325000   1.0425591      0.00063713937 -36.765691     -37.806513    
    326000   0.99163948     0.00054446558 -36.831887     -37.821874    
    327000   1.0267659      0.00069941789 -36.785473     -37.810527    
    328000   1.1105942      0.0017594563  -36.73624      -37.844984    
    329000   1.0317865      0.00090191932 -36.786911     -37.816977    
    330000   0.99613102     0.00073797334 -36.821776     -37.816247    
    331000   0.97782551     0.00084610503 -36.862336     -37.838532    
    332000   1.0050259      0.00087279313 -36.837621     -37.840972    
    333000   0.92731288    -0.000238855   -36.852515     -37.778282    
    334000   0.99849371     0.0004350503  -36.802419     -37.799248    
    335000   0.93424406     0.00038011449 -36.895411     -37.828098    
    336000   0.93707078     4.8875892e-05 -36.861656     -37.797165    
    337000   1.0128469      0.00064109997 -36.7923       -37.803459    
    338000   0.99107826     0.00072917961 -36.833123     -37.822549    
    339000   0.98651153     0.00064076715 -36.853794     -37.838661    
    340000   1.0059609      0.00038641603 -36.792604     -37.796888    
    341000   0.99374937     0.00025615671 -36.801446     -37.793539    
    342000   0.98070869    -1.037033e-05  -36.801161     -37.780235    
    343000   0.98599304     0.00055266464 -36.829458     -37.813807    
    344000   1.045042       0.00072416403 -36.765681     -37.808981    
    345000   1.029834       0.00033093568 -36.762764     -37.790882    
    346000   0.87921077    -5.9882647e-05 -36.944214     -37.82196     
    347000   1.0232158      0.0010872259  -36.823615     -37.845126    
    348000   0.99200271     0.00062945855 -37.356449     -38.346798    
    349000   1.0354319      0.00047576535 -37.290045     -38.323751    
    350000   0.98408844     0.00055016557 -37.373651     -38.356099    
    351000   1.0798364      0.00087218675 -37.261559     -38.339595    
    352000   0.99259819     8.9909154e-05 -37.334864     -38.325808    
    353000   1.0315666      0.00065534424 -37.297748     -38.327595    
    354000   0.96824564     5.5835971e-05 -37.359508     -38.32614     
    355000   0.95820307     0.00022213482 -37.386944     -38.34355     
    356000   0.89255594     0.00022176436 -37.481233     -38.372301    
    357000   0.97634015    -2.2209327e-05 -37.338451     -38.313164    
    358000   0.98384553    -0.00017108024 -37.323998     -38.306204    
    359000   1.1037527      0.0013884738  -37.260466     -38.362379    
    360000   1.0331736      0.0012615306  -37.345882     -38.377333    
    361000   0.97298865     0.00028197572 -37.353276     -38.324643    
    362000   0.9920542      0.00095213461 -37.390624     -38.381024    
    363000   1.0279201      0.00039949989 -37.696544     -38.722751    
    364000   0.95160984     0.00082097852 -37.838646     -38.78867     
    365000   0.98718227     0.00048619044 -38.806545     -39.792082    
    366000   1.0314589      0.0005389568  -38.738272     -39.768012    
    367000   0.99810967     0.00014057345 -38.754661     -39.751107    
    368000   1.0210996      0.00028873527 -38.741483     -39.760881    
    369000   0.98046987     0.00084279661 -38.838033     -39.816869    
    370000   0.96861055     0.00037024099 -38.823584     -39.79058     
    371000   0.9834811      0.00092046908 -38.829334     -39.811176    
    372000   0.9711811      0.00033931576 -38.821727     -39.791289    
    373000   1.0511902     -3.1516585e-05 -39.336879     -40.386318    
    374000   1.0351926      0.00057616907 -39.408647     -40.442114    
    375000   0.96869034     0.00041376698 -39.495442     -40.462518    
    376000   0.98385717     0.00014465032 -39.450802     -40.433019    
    377000   0.99594822    -5.0012374e-05 -39.408737     -40.403026    
    378000   1.0278088      0.00029389352 -39.394128     -40.420224    
    379000   0.94105018    -9.3694642e-05 -39.498258     -40.437739    
    380000   1.0282636      0.00067545205 -39.421122     -40.447672    
    381000   0.97820396     0.00052062589 -39.486912     -40.463486    
    382000   0.97242507     0.00016973636 -39.466629     -40.437434    
    383000   1.0263781      0.00099008606 -39.452605     -40.477273    
    384000   0.99195316     0.000267957   -39.438642     -40.428942    
    385000   0.99666389     0.00030837566 -39.442926     -40.437929    
    386000   1.003093       0.0011031119  -39.49684      -40.498261    
    387000   1.0003387      0.00023286131 -40.295006     -41.293677    
    388000   0.98081136     0.00075140542 -40.362157     -41.341334    
    389000   1.0414989      0.001079158   -40.294216     -41.333979    
    390000   1.0043694      0.00024142996 -40.296872     -41.299568    
    391000   0.98759445    -1.8115186e-05 -40.303003     -41.288952    
    392000   0.94471524     0.00050371561 -40.395366     -41.338507    
    393000   0.97913336     0.00056480335 -40.35919      -41.336691    
    394000   0.90164782    -0.00071082389 -40.380169     -41.280314    
    395000   1.0153492      0.00064474165 -40.314335     -41.327992    
    396000   1.0189907      0.00068713387 -40.304136     -41.321429    
    397000   1.0218466      0.00059488181 -40.298982     -41.319125    
    398000   1.0370343      0.00095952341 -40.293591     -41.328896    
    399000   1.0376949      0.00077608081 -40.289916     -41.325881    
    400000   0.96955015     0.00014841104 -40.34281      -41.310744    
    401000   1.0445555      0.00089044635 -40.293427     -41.336241    
    402000   1.032155       0.00034940519 -40.255602     -41.286037    
    403000   1.0208158      0.00056160756 -40.285506     -41.304621    
    404000   1.019651       0.0007015634  -40.296626     -41.314578    
    405000   1.1165728     -2.5342127e-05 -40.925514     -42.040226    
    406000   0.92914024     3.0004473e-06 -41.209834     -42.137426    
    407000   1.0864073      0.0015471037  -41.109163     -42.19376     
    408000   0.97459754    -0.0001553594  -41.134739     -42.107713    
    409000   0.96823734     0.00090252802 -41.224215     -42.190839    
    410000   0.99032604     0.00022949892 -41.150339     -42.139014    
    411000   0.97595184     7.9168163e-05 -41.160333     -42.134659    
    412000   1.0410789      0.00023979703 -41.082419     -42.121762    
    413000   1.0237333      0.00075910768 -41.130479     -42.152506    
    414000   0.94988883     0.00011311235 -41.200237     -42.148543    
    415000   1.0303798      0.00079914787 -41.129426     -42.158089    
    416000   1.0477499      0.00037233969 -41.072584     -42.118587    
    417000   1.0117381      0.00041569807 -41.133217     -42.143269    
    418000   0.96969508    -0.00030585492 -41.141284     -42.109363    
    419000   0.97318952     0.00068772227 -41.393829     -42.365397    
    420000   1.0312902      0.0003360331  -41.297686     -42.327258    
    421000   1.013291       0.00037953018 -41.314778     -42.32638     
    422000   0.94821374     0.00021801765 -41.395819     -42.342452    
    423000   1.0142766      0.0003626638  -41.313653     -42.326239    
    424000   1.0385457      0.00046020462 -41.266443     -42.303258    
    425000   1.0582975      0.0011984071  -41.298602     -42.355136    
    426000   1.0439557     -4.9880303e-05 -41.239841     -42.282057    
    427000   1.0347615      0.00033635809 -41.269806     -42.302843    
    428000   0.98555296     0.00053645578 -41.361049     -42.344959    
    429000   1.0268614      0.00011552941 -41.266574     -42.291724    
    430000   1.0042942      0.00067865254 -41.344843     -42.347464    
    431000   1.0667938      0.00029657287 -41.233752     -42.298768    
    432000   0.99750457    -0.00018552424 -41.276943     -42.272785    
    433000   1.0280648      0.00046038115 -41.300819     -42.32717     
    434000   0.96101701    -0.00045290833 -41.321584     -42.281       
    435000   1.0395128      0.00015975292 -41.266013     -42.303793    
    436000   1.0194979      0.00042805333 -41.304611     -42.322409    
    437000   0.93018453    -0.0001373557  -41.397925     -42.326559    
    438000   0.98424329     0.00034266204 -41.356022     -42.338625    
    439000   0.96513591     0.00033419872 -41.377592     -42.341119    
    440000   0.99985219     0.00063158489 -41.345895     -42.34408     
    441000   1.0470198      0.0006930489  -41.278709     -42.323984    
    442000   1.0174515      0.00030496899 -41.293627     -42.309383    
    443000   0.96873398     6.537109e-05  -41.350636     -42.317755    
    444000   0.99012317     0.0002967051  -41.365976     -42.354449    
    445000   0.98771911    -0.00017051279 -41.98831      -42.974382    
    446000   0.96492594     2.6502762e-05 -42.037728     -43.001046    
    447000   0.97313576     0.00046540869 -42.058099     -43.029613    
    448000   1.0249575      0.0007612309  -41.99364      -43.016889    
    449000   0.93699177    -0.00034936122 -42.065126     -43.000556    
    450000   0.98728429     0.00065210756 -42.053586     -43.039225    
    451000   1.0145283      0.00066266472 -42.020794     -43.033632    
    452000   0.96067825    -0.00022968866 -42.035375     -42.994452    
    453000   1.0045969      0.00078470457 -42.032179     -43.035101    
    454000   0.96526086     0.00039021217 -42.067372     -43.031024    
    455000   1.0501097      0.00019070706 -41.941649     -42.990009    
    456000   1.0109995      0.00028069171 -42.005413     -43.014727    
    457000   0.98401709     0.00011498747 -42.020253     -43.00263     
    458000   0.96610754     1.9296197e-05 -42.042627     -43.007124    
    459000   1.0057855      0.00024158988 -42.004731     -43.00884     
    460000   0.97186549     0.0007026157  -42.083812     -43.054057    
    461000   0.98447256     0.00020033982 -42.019104     -43.001935    
    462000   1.0031009      0.00059581562 -42.026766     -43.028196    
    463000   0.95956183     0.00016432427 -42.052236     -43.010198    
    464000   0.97541035     8.7881527e-05 -42.040097     -43.013882    
    465000   0.994508       0.00034286362 -42.028139     -43.020989    
    466000   0.98017697    -0.00021304367 -42.574016     -43.55256     
    467000   1.0346525      0.00071560348 -42.559455     -43.592383    
    468000   0.99479383     0.00056191847 -42.608496     -43.601632    
    469000   1.0140019      0.000794191   -42.58972      -43.602031    
    470000   1.0292184      0.00055678992 -42.560546     -43.588049    
    471000   1.0090263      0.00045472002 -42.577976     -43.585321    
    472000   1.058398       0.00090647786 -42.550762     -43.607396    
    473000   0.99887751     0.0003996001  -42.58979      -43.587003    
    474000   1.011573       0.00054332627 -42.58536      -43.595247    
    475000   1.0202457      0.0010282203  -42.596603     -43.615148    
    476000   0.95650612    -0.00060271617 -42.579935     -43.534847    
    477000   0.96257658    -0.00025690772 -42.592505     -43.553477    
    478000   0.97745362     0.00011401645 -42.587719     -43.563544    
    479000   1.0712304      0.0011976018  -42.5484       -43.617845    
    480000   1.0099714      0.00024823444 -42.555858     -43.564146    
    481000   0.98318587    -0.00026023068 -42.566477     -43.548025    
    482000   0.99032091    -0.00016199367 -42.557902     -43.546572    
    483000   1.2143197     -0.00059173454 -43.737755     -44.950051    
    484000   0.98361212    -0.00036499006 -44.142786     -45.124759    
    485000   0.9493189      2.4344081e-05 -45.331467     -46.279204    
    486000   0.98490711     0.00044743788 -45.327905     -46.311171    
    487000   1.0063614      0.000712391   -45.30866      -46.313344    
    488000   1.0353411      0.00038984097 -45.240423     -46.274039    
    489000   0.9639207      0.00076826648 -45.36727      -46.329584    
    490000   1.0427185      0.00059647984 -45.244147     -46.285128    
    491000   0.97142358    -0.00020341462 -45.287025     -46.256829    
    492000   1.0103423      0.000577503   -45.296425     -46.305084    
    493000   0.98396784     0.00039136952 -45.318717     -46.301045    
    494000   1.0085728     -7.4335313e-05 -45.247047     -46.253939    
    495000   0.95069846     0.00076298531 -45.396306     -46.34542     
    496000   0.94732665     0.00076575817 -45.388937     -46.334685    
    497000   1.007134       0.00067261467 -45.295733     -46.301189    
    498000   0.97077501    -0.00038688999 -45.286297     -46.255454    
    499000   0.99752554     0.0006369524  -45.314938     -46.310801    
    500000   1.0236605      0.0010466069  -46.669885     -47.691839    
    501000   1.0013919      4.4330279e-05 -46.62841      -47.628133    
    502000   0.94744387    -0.00036090134 -46.681727     -47.627592    
    503000   0.99970708     0.00027949984 -46.652986     -47.651027    
    504000   1.0290598     -0.00015045163 -46.562658     -47.590003    
    505000   1.0709895      0.00063174042 -46.57308      -47.642285    
    506000   1.022986       0.00068950846 -46.640648     -47.661929    
    507000   1.018751      -7.1815343e-05 -46.600346     -47.617399    
    508000   0.93525071    -0.00038559365 -46.70698      -47.640672    
    509000   0.95604732    -0.00080908357 -46.64506      -47.599514    
    510000   0.89563147    -0.00015118784 -46.772793     -47.666932    
    511000   0.96793691     0.00067342538 -46.723421     -47.689744    
    512000   1.0320261      0.0004078544  -46.623908     -47.654215    
    513000   1.0161826      0.00074728357 -46.661806     -47.676295    
    514000   0.97413102     0.00045036672 -46.697684     -47.670192    
    515000   0.96195249     0.00046535968 -46.714334     -47.674683    
    516000   0.97686605     0.00028468978 -46.684285     -47.659523    
    517000   1.0424835      0.00090871971 -46.633397     -47.674143    
    518000   1.0112787      0.00058964974 -46.654132     -47.663725    
    519000   0.99645418     0.00024345136 -46.656848     -47.651641    
    520000   0.95144902    -0.00010302789 -46.681402     -47.631265    
    521000   0.97854705    -9.3025643e-05 -46.657693     -47.63461     
    522000   1.0197071      0.00066228677 -46.652635     -47.670643    
    523000   0.98117622    -0.0004354005  -46.633016     -47.612557    
    524000   1.0301121      0.00066738726 -46.637066     -47.665461    
    525000   1.0737966      0.0012871787  -46.619212     -47.691219    
    526000   1.0359285      0.00068266428 -46.635461     -47.669663    
    527000   0.94752688     0.00066597089 -46.744677     -47.690625    
    528000   0.95818855    -8.6220405e-06 -46.705136     -47.661727    
    529000   1.0067188      0.0010429395  -46.69787      -47.702911    
    530000   0.95939033    -0.0002034692  -46.677368     -47.635159    
    531000   1.0370659      0.00017699484 -46.584409     -47.619746    
    532000   0.92871163     5.2649156e-05 -46.737513     -47.664677    
    533000   0.93312807    -0.00051864079 -46.70184      -47.633413    
    534000   0.99354862     0.00077235004 -46.698652     -47.690544    
    535000   0.88916263    -0.00056610782 -46.753694     -47.641375    
    536000   0.96022197    -0.00043263754 -46.662532     -47.621154    
    537000   1.0207221      0.00067768329 -46.653986     -47.673006    
    538000   0.96506596     0.00025284008 -46.69829      -47.661748    
    539000   0.96958796     0.00039763593 -46.699409     -47.667381    
    540000   0.98295023     0.00017273917 -46.670243     -47.651555    
    541000   0.96031804    -0.00045856247 -46.665816     -47.624533    
    542000   0.92741016    -0.00054507609 -46.705787     -47.631652    
    543000   1.0117683      0.00070059266 -46.664798     -47.67488     
    544000   0.99574306     0.00036310413 -46.668744     -47.662827    
    545000   1.0254953      0.00037867253 -46.615749     -47.639535    
    546000   0.99481665     0.00081213278 -46.691025     -47.684184    
    547000   1.0209626      0.00029296929 -46.620856     -47.640117    
    548000   1.0207818      0.00045204179 -46.634645     -47.653725    
    549000   1.0080167      0.00041329053 -46.650696     -47.657033    
    550000   0.96909139     0.00012895634 -46.681553     -47.649029    
    551000   0.97777454     0.00024824976 -46.685824     -47.661969    
    552000   0.93993088    -0.0004028809  -46.695546     -47.63391     
    553000   0.9725807     -0.00050926529 -46.626794     -47.597753    
    554000   0.97259935    -2.2721085e-05 -46.662139     -47.633118    
    555000   0.92597781    -8.8263306e-05 -46.728457     -47.652891    
    556000   0.97439585     0.00026609756 -46.676978     -47.64975     
    557000   1.0464805      0.00067158025 -46.605956     -47.650693    
    558000   1.4763827      0.0026094159  -49.007986     -50.481908    
    559000   0.94625752     0.00057166082 -49.635625     -50.580306    
    560000   1.0483029     -6.2449238e-05 -49.44648      -50.493036    
    561000   0.934856       0.00047730309 -49.637971     -50.571269    
    562000   1.0000663     -0.00060765555 -49.489856     -50.488256    
    563000   1.1049792      0.0010524736  -49.442113     -50.54525     
    564000   0.90640382    -0.00031081382 -49.628959     -50.533852    
    565000   1.0133987      0.00063593088 -49.545351     -50.557061    
    566000   1.0006322     -0.00055288975 -49.477129     -50.476094    
    567000   0.97405375    -0.00029577401 -49.542962     -50.515393    
    568000   0.96829323     0.00087304234 -49.620463     -50.587142    
    569000   0.99246316    -0.0004168421  -49.506692     -50.497501    
    570000   0.95059007     0.00042617556 -49.631524     -50.58053     
    571000   0.97107064     9.5673851e-05 -49.568101     -50.537553    
    572000   1.1091096      0.00029404044 -49.398488     -50.505749    
    573000   0.98458828     0.00037920411 -49.576028     -50.558975    
    574000   1.005772      -0.00020101215 -49.488996     -50.493091    
    575000   1.0035717      0.00071492217 -49.561101     -50.563       
    576000   0.99945518     0.00020507872 -49.532656     -50.530446    
    577000   1.0472338      0.00044462037 -49.490437     -50.535925    
    578000   1.0124164      0.00075438706 -49.544294     -50.555023    
    579000   0.94235238    -0.00021295579 -49.588637     -50.529419    
    580000   1.0264365      0.00018553829 -49.487687     -50.512413    
    581000   0.90502335    -0.00070041526 -49.608652     -50.512167    
    582000   1.0565704      0.00087634426 -49.488266     -50.543076    
    583000   1.0023815      0.00093282793 -49.582115     -50.582826    
    584000   0.98170762     0.0005226025  -49.579721     -50.559793    
    585000   1.0037642      0.00046331863 -49.543588     -50.545679    
    586000   1.0415203      0.00058177878 -49.48348      -50.523264    
    587000   1.0931006      0.0010917279  -49.467571     -50.558849    
    588000   0.98292966     0.00014980411 -49.544482     -50.525773    
    589000   0.99173191     0.0002501064  -49.538769     -50.528848    
    590000   1.0334358      0.00082806693 -49.522592     -50.554306    
    591000   0.99516031     0.00019223894 -49.541587     -50.535089    
    592000   1.0181106      0.00016893698 -49.507968     -50.524382    
    593000   1.0287452      0.0010191684  -49.556113     -50.583143    
    594000   0.97235532    -8.0829661e-05 -49.553309     -50.524044    
    595000   0.94704221    -0.00020577914 -49.573428     -50.518892    
    596000   0.99834574     0.00050348681 -49.563162     -50.559844    
    597000   0.94620823     9.3367897e-05 -49.611302     -50.555933    
    598000   1.0118953     -2.0116262e-05 -49.49957      -50.509778    
    599000   0.98875749     0.0005961894  -49.581193     -50.568303    
    600000   0.92321967     0.00026000593 -49.655307     -50.576988    
    601000   1.0533315      0.00038473152 -49.477845     -50.529421    
    602000   1.0785506      0.00030349735 -49.426487     -50.50324     
    603000   1.0328167      0.00026783023 -49.499534     -50.530629    
    604000   0.98451781    -0.00011673516 -49.531546     -50.514423    
    605000   1.0521246     -2.7292872e-06 -49.433838     -50.484209    
    606000   0.98789354     0.00029587686 -49.555058     -50.541305    
    607000   1.0072343      0.00046442397 -49.548464     -50.55402     
    608000   0.92327954    -0.00013341996 -49.614546     -50.536287    
    609000   1.0102723     -1.7923121e-05 -49.51019      -50.518779    
    610000   0.99763008     0.0010385186  -49.588599     -50.584566    
    611000   1.0054619      0.00049670395 -49.536545     -50.540332    
    612000   1.0322156      0.00077994679 -49.532274     -50.562769    
    613000   1.0556568      0.00042981676 -49.480834     -50.534731    
    614000   0.97718191    -0.00041837469 -49.519988     -50.495541    
    615000   0.97279927     0.00027787806 -49.582794     -50.553972    
    616000   0.94674207     0.00035291518 -49.619465     -50.564629    
    617000   0.94386494    -0.00032519649 -49.569035     -50.511327    
    618000   1.0432459      0.0005870076  -49.498484     -50.539991    
    619000   0.99387686     0.0010077042  -49.59768      -50.5899      
    620000   1.0013001      0.0010543257  -49.58809      -50.587721    
    621000   1.0284147      0.00078994203 -49.540909     -50.567609    
    622000   0.99222887     0.00010770243 -49.547062     -50.537637    
    623000   1.0077427      0.00056891754 -49.548988     -50.555051    
    624000   1.0243552      0.001179405   -49.557843     -50.580491    
    625000   1.0636503      0.0005612638  -49.470734     -50.532612    
    626000   1.0125542      0.00043320422 -49.529364     -50.540231    
    627000   1.0269676      0.00034951673 -49.504474     -50.52973     
    628000   0.99855943    -4.7105151e-05 -49.513675     -50.51057     
    629000   1.0628516      0.00086742666 -49.492934     -50.554014    
    630000   1.0203291     -8.5346201e-05 -49.472013     -50.490642    
    631000   1.0124833      0.00068149835 -49.535628     -50.546424    
    632000   0.96327739    -0.00025730081 -49.558133     -50.519805    
    633000   1.1421176      0.0017678201  -49.43904      -50.579254    
    634000   0.96636207    -0.00011305565 -49.567281     -50.532032    
    635000   0.98138185    -0.00017843571 -49.537277     -50.517023    
    636000   1.0140592      0.00084206458 -49.559321     -50.57169     
    637000   0.91506582     0.00063111817 -49.688685     -50.602226    
    638000   1.0267112      0.00042276566 -52.193293     -53.218293    
    639000   1.0915276      0.0016642781  -52.181155     -53.270863    
    640000   1.0336063      0.00081336867 -52.209744     -53.241627    
    641000   0.98793745     0.00044071847 -52.25702      -53.243311    
    642000   0.97378509    -6.562185e-05  -52.246343     -53.218505    
    643000   0.94687962    -0.00019221118 -52.271881     -53.217183    
    644000   1.0403121      0.00010283542 -52.14397      -53.182549    
    645000   1.0558273      0.001307567   -52.220506     -53.274574    
    646000   1.0173299      0.00028406838 -52.20582      -53.221455    
    647000   0.99396953    -0.00083058843 -52.161248     -53.153561    
    648000   0.94811288     0.00074742348 -52.326249     -53.272781    
    649000   0.98405054     0.0010907329  -52.304073     -53.286484    
    650000   1.0083892      0.00094409666 -52.250564     -53.257272    
    651000   0.92519553    -0.00025668568 -52.301563     -53.225217    
    652000   0.95350555     0.00012136645 -52.283336     -53.235253    
    653000   0.95982703    -0.00014671079 -52.23783      -53.196057    
    654000   1.0376729      0.00094551625 -52.209347     -53.24529     
    655000   1.0439436      0.00041851548 -52.175957     -53.218161    
    656000   1.0831966      2.9835838e-05 -52.077109     -53.1585      
    657000   1.0366259      0.00058556049 -52.190056     -53.224954    
    658000   1.0058885     -0.00058108039 -52.169443     -53.173655    
    659000   0.98359655    -1.6169782e-05 -52.226276     -53.208233    
    660000   1.0369956      0.00023541158 -52.171749     -53.207016    
    661000   1.0548219      0.001065479   -52.196676     -53.24974     
    662000   0.93269198     3.6142254e-05 -52.30699      -53.238127    
    663000   0.96112443     9.8014543e-05 -52.270009     -53.229531    
    664000   1.0024978      0.00029108683 -52.221902     -53.222729    
    665000   0.97786599     0.00059161682 -52.275411     -53.251647    
    666000   0.91365827    -0.00073923779 -52.270724     -53.182859    
    667000   1.0181245      0.00081881858 -52.235774     -53.252201    
    668000   0.99515602     0.00020749589 -52.220197     -53.213695    
    669000   0.99959198     0.000245364   -52.230066     -53.227992    
    670000   1.0042052      8.1618851e-05 -52.210506     -53.213038    
    671000   1.0455043      0.00051582875 -52.179457     -53.223219    
    672000   1.0526914     -0.00047442662 -52.10643      -53.157367    
    673000   0.97361992    -0.00033450661 -52.212646     -53.184643    
    674000   1.0678978      0.00026613313 -52.131118     -53.197236    
    675000   0.99928889     0.00073871076 -52.250094     -53.247717    
    676000   0.98621632    -0.00045502581 -52.189738     -53.174311    
    677000   1.0749853      0.00046699021 -52.137439     -53.210632    
    678000   0.96783836    -0.00022062502 -52.235552     -53.201777    
    679000   1.0204061      0.00092500943 -52.236183     -53.254889    
    680000   0.96911789     0.00057184518 -52.280911     -53.248413    
    681000   1.0498715      0.00064028248 -52.192594     -53.240716    
    682000   1.0459474      0.00077965383 -52.196416     -53.24062     
    683000   0.94702642     0.00041957735 -52.303156     -53.248604    
    684000   1.0465038      0.00057668697 -52.173839     -53.218598    
    685000   0.95371931    -0.00082659805 -52.224272     -53.176401    
    686000   0.99896459     0.00064136074 -52.255682     -53.252982    
    687000   1.0566767      0.0014570547  -52.227032     -53.281948    
    688000   0.98307762     0.00022767978 -52.234609     -53.216048    
    689000   0.98795859     0.00078336051 -52.277078     -53.26339     
    690000   0.9799748     -0.0001415278  -52.212377     -53.190719    
    691000   1.0317831      0.00042823396 -52.182233     -53.212297    
    692000   0.97058528     6.4965413e-05 -52.244803     -53.21377     
    693000   1.0930797      0.00092815643 -52.128377     -53.219635    
    694000   0.98392322     0.00054378699 -52.989082     -53.971365    
    695000   1.0306048     -0.00032698802 -52.847943     -53.87683     
    696000   1.0115306      0.00041101346 -52.935283     -53.945128    
    697000   1.0226673     -0.00027185792 -52.868814     -53.889777    
    698000   0.97675065     0.00049607865 -55.526533     -56.501656    
    699000   0.94224431     0.00020535597 -55.555227     -56.495901    
    700000   0.97223794     0.00039051149 -55.530796     -56.501414    
    701000   1.0241694     -8.8961174e-05 -55.424048     -56.44651     
    702000   1.0280024      0.00047550584 -55.44968      -56.475969    
    703000   1.0123729      0.0005469639  -55.473527     -56.484213    
    704000   0.96098005     5.4726664e-05 -55.52018      -56.479558    
    705000   0.9960117      0.00028516541 -55.492211     -56.486562    
    706000   1.0236643      0.0010149305  -55.4822       -56.504158    
    707000   1.0152763      0.00062153523 -55.483344     -56.496928    
    708000   0.96039394     0.00056979342 -55.558253     -56.517046    
    709000   1.0540492      0.0009143158  -55.441295     -56.493588    
    710000   1.0456424      0.00025603302 -55.419054     -56.462953    
    711000   1.0137584     -0.0003803931  -55.419825     -56.431894    
    712000   1.0023353      0.00024226633 -55.478694     -56.479359    
    713000   1.0397514      0.00021330572 -55.425732     -56.463751    
    714000   1.0146557      0.00053100871 -55.474394     -56.487359    
    715000   1.0405011      0.00063594512 -55.450241     -56.489008    
    716000   0.95319277    -3.9729917e-06 -55.525244     -56.476848    
    717000   1.01593        0.00047770156 -55.474046     -56.488282    
    718000   0.98478979    -0.00051084537 -55.453666     -56.436814    
    719000   0.99919736    -0.00016158522 -55.449496     -56.447029    
    720000   1.0381702      8.6678118e-05 -55.413056     -56.449496    
    721000   1.0693268      0.00076714301 -55.412084     -56.479628    
    722000   0.96006096     0.0001545615  -55.520081     -56.478542    
    723000   1.0169224     -2.3144295e-05 -55.450094     -56.465321    
    724000   1.007036       0.00027792624 -55.472832     -56.478189    
    725000   0.95623459     0.00040856984 -55.547849     -56.50249     
    726000   1.032937       0.00051762966 -55.448432     -56.479648    
    727000   0.99258967     0.000101643   -55.4733       -56.464235    
    728000   0.993237       0.00067171692 -55.516827     -56.508409    
    729000   0.89831126    -0.00060574403 -55.55516      -56.451974    
    730000   0.99667307     0.00074966302 -55.510862     -56.505874    
    731000   1.1021484      0.00074950768 -55.363023     -56.463335    
    732000   0.99009906    -0.00010642147 -55.469835     -56.458284    
    733000   1.0374784      0.00043134612 -55.4422       -56.477949    
    734000   0.99394631     0.00014403056 -55.478652     -56.470941    
    735000   0.9781876     -0.0001117726  -55.479529     -56.456086    
    736000   0.97642676     0.00031277948 -55.513896     -56.488695    
    737000   1.0558322      0.00063494116 -55.412365     -56.466438    
    738000   0.94879826     3.7773264e-05 -55.523638     -56.470854    
    739000   1.0336318      4.6118583e-05 -55.416491     -56.4484      
    740000   1.0468448      0.00087494436 -55.445306     -56.490406    
    741000   0.99420268     0.00017947138 -55.47417      -56.466716    
    742000   1.0057578     -0.0001596585  -55.448375     -56.452457    
    743000   0.99390075     0.00023834053 -55.479549     -56.471793    
    744000   1.0281611      0.00055192542 -55.463942     -56.49039     
    745000   1.0300822      8.1361994e-05 -55.425878     -56.454243    
    746000   0.99645533    -2.0009495e-05 -55.475164     -56.469958    
    747000   1.0433604     -2.6228434e-05 -55.401276     -56.442898    
    748000   0.98572738     0.00076988751 -55.531503     -56.515587    
    749000   1.0042079      0.00045831369 -55.486745     -56.489279    
    750000   0.93152911     2.3635841e-05 -55.556133     -56.48611     
    751000   1.0361948      0.0002405703  -55.425971     -56.460439    
    752000   0.98743277    -0.00041302693 -55.460884     -56.446671    
    753000   0.9765226      0.00019207957 -55.518985     -56.49388     
    754000   1.0239867      0.0012783035  -55.504975     -56.527256    
    755000   1.0564278      0.0010672886  -55.456049     -56.510716    
    756000   0.94287944    -0.00052265725 -55.490192     -56.4315      
    757000   1.05284        0.00068510977 -55.435249     -56.486335    
    758000   0.99219102     0.00046231184 -55.504028     -56.494565    
    759000   0.93764754    -0.00010276979 -55.548362     -56.484447    
    760000   1.0446816      0.00061819724 -55.434457     -56.477397    
    761000   1.0004523      0.00086350249 -55.510666     -56.509451    
    762000   1.0172327      0.00047628675 -55.470627     -56.486165    
    763000   0.95926709    -5.3641303e-05 -55.52643      -56.484098    
    764000   1.078965       0.0014002428  -55.436946     -56.514113    
    765000   1.0248086      0.00085051968 -55.481944     -56.505044    
    766000   0.9535046      0.00015431711 -55.533021     -56.484936    
    767000   0.87938026    -0.00026285169 -55.613207     -56.491122    
    768000   0.97403596     9.0318348e-05 -55.508939     -56.481351    
    769000   0.99428245     0.00064262479 -55.513954     -56.50658     
    770000   0.99218864     0.00049766768 -55.503732     -56.494267    
    771000   0.95563724     0.00058624844 -55.5728       -56.526844    
    772000   0.98008306     6.3994787e-06 -55.489374     -56.467824    
    773000   1.0217159      0.00030438226 -55.452795     -56.472808    
    774000   0.98318746     0.00042886701 -55.510946     -56.492495    
    775000   1.017143       0.00039073834 -55.453592     -56.469039    
    776000   1.0321991      0.00081602625 -55.471666     -56.502144    
    777000   0.93172105     2.0444351e-05 -55.551807     -56.481975    
    778000   0.932811      -0.00012594812 -55.542205     -56.473461    
    779000   1.0170258      0.0005213674  -55.47304      -56.488371    
    780000   1.0355786     -8.1509848e-05 -55.403174     -56.437027    
    781000   1.0588588      0.00038557126 -55.407401     -56.464495    
    782000   1.0342397      0.0004439021  -55.444283     -56.476798    
    783000   0.98463471    -0.00061746765 -55.443351     -56.426344    
    784000   1.1115381      0.00031647703 -55.317317     -56.427003    
    785000   0.95652066     0.0004147659  -55.542032     -56.496958    
    786000   1.1969123      0.0012276187  -56.262115     -57.457032    
    787000   0.98978286     0.00051913655 -56.503381     -57.491514    
    788000   0.98245134     0.00050614439 -56.519268     -57.500082    
    789000   1.0176192     -0.00012732998 -56.438982     -57.454906    
    790000   0.95345986     1.1282985e-05 -56.526088     -57.477959    
    791000   1.0338561      0.001086746   -56.489093     -57.521226    
    792000   1.0528369      0.0010199398  -56.444911     -57.495993    
    793000   0.99068184    -0.00025878306 -56.462336     -57.451367    
    794000   0.98429787     0.0011125894  -56.555642     -57.538299    
    795000   0.95796012    -0.00013283288 -56.510575     -57.466938    
    796000   1.0462093      0.00072369844 -56.439747     -57.484213    
    797000   1.0108577      0.00031837959 -56.458134     -57.467307    
    798000   0.97304966     0.00015304276 -56.514962     -57.48639     
    799000   1.0254945      0.00015364831 -56.428744     -57.452529    
    800000   0.99388337    -0.0006978746  -56.421951     -57.414178    
    801000   0.9633292     -0.00057218695 -56.48659      -57.448314    
    802000   0.94428321     0.00052369809 -56.572556     -57.515265    
    803000   0.9812463     -0.00019037577 -56.479611     -57.459222    
    804000   1.0611264      0.00066279753 -56.416615     -57.475973    
    805000   1.0213229      0.001336196   -56.511916     -57.531536    
    806000   1.035806       0.000620163   -56.462613     -57.496693    
    807000   1.0011871      0.00046603898 -56.498646     -57.498165    
    808000   1.0238741      0.00079406113 -56.483819     -57.505987    
    809000   0.95992963     0.00011956298 -56.530242     -57.488572    
    810000   1.0251474      0.00041278564 -58.247536     -59.270975    
    811000   0.99807641    -8.0060036e-06 -58.249132     -59.245545    
    812000   1.0273816      0.00067504151 -58.251625     -59.277294    
    813000   1.0281641      0.00085222857 -58.264971     -59.291422    
    814000   0.98343301     0.00047803641 -58.308436     -59.29023     
    815000   1.0378291      0.00074139849 -58.247912     -59.284011    
    816000   1.0394152      0.00049163266 -58.231449     -59.269132    
    817000   1.0149389      0.0003496202  -58.252503     -59.265751    
    818000   0.99458295     0.00089563702 -58.311659     -59.304584    
    819000   0.97841948     0.00027732351 -58.302942     -59.279731    
    820000   0.94585857    -0.00031183839 -58.301839     -59.246122    
    821000   1.0046848      0.000694308   -58.286625     -59.289636    
    822000   0.99457936     0.00026360538 -58.279486     -59.272407    
    823000   1.0581729      0.00075982549 -58.213486     -59.269895    
    824000   0.96571493     0.00030273226 -58.315336     -59.279441    
    825000   0.99251966     0.00040479401 -58.28705      -59.277916    
    826000   0.97968567    -0.00021652874 -58.259628     -59.237681    
    827000   0.96493159    -0.00012165434 -58.278092     -59.241415    
    828000   0.99611048    -0.00012554249 -58.247094     -59.241544    
    829000   1.0374255      0.00066023713 -58.236808     -59.272504    
    830000   1.0493397      0.00051646016 -58.215602     -59.263193    
    831000   0.90041011     0.00013923683 -58.400879     -59.299788    
    832000   0.99892621     0.00021719978 -58.267348     -59.26461     
    833000   0.97860544     0.00013651812 -58.29066      -59.267635    
    834000   1.0019112      0.00012986653 -58.246839     -59.247081    
    835000   1.0014648     -9.786719e-06  -58.239948     -59.239744    
    836000   1.0215812      0.00032340919 -58.247301     -59.267179    
    837000   0.98357944     0.00026268015 -58.288965     -59.270905    
    838000   0.99932686    -2.4405344e-05 -58.253286     -59.250947    
    839000   1.0359062      0.00078481405 -58.246495     -59.280675    
    840000   0.93532309     0.00048986773 -58.36964      -59.303404    
    841000   0.97750857    -0.00022415266 -58.273893     -59.249772    
    842000   1.0364156      0.0011448923  -58.26742      -59.302108    
    843000   0.9525353      0.00014312792 -58.314696     -59.265644    
    844000   0.96109823    -8.4971092e-05 -58.306932     -59.266428    
    845000   0.93132625    -0.00043802701 -58.311213     -59.240987    
    846000   0.9992256      0.00038656819 -58.275485     -59.273045    
    847000   0.97308547     1.7525899e-05 -58.286137     -59.257601    
    848000   1.0082198      0.00098507408 -58.303103     -59.309643    
    849000   0.93635149    -0.00065045919 -58.285331     -59.220122    
    850000   0.97217222     0.00017828437 -58.305907     -59.276459    
    851000   1.0494369      0.00035872468 -58.203903     -59.251591    
    852000   1.0245771      0.001053804   -58.284778     -59.307647    
    853000   1.0182805      0.00094091803 -58.286955     -59.303539    
    854000   0.93297947    -0.00042288786 -58.317816     -59.24924     
    855000   0.94265797     3.3102961e-05 -58.335432     -59.276519    
    856000   0.96426806     0.00092209264 -58.368463     -59.331124    
    857000   1.0070758      0.0010374905  -58.308635     -59.314033    
    858000   1.0269421      0.0010979604  -58.281988     -59.307218    
    859000   1.0179468      0.00041414105 -58.253513     -59.269763    
    860000   0.97498333    -5.2702379e-05 -58.274893     -59.248251    
    861000   1.0149067      0.0001308246  -58.237613     -59.250828    
    862000   0.97374441     0.00082197233 -58.338976     -59.311097    
    863000   0.96211986     7.9574393e-05 -58.313064     -59.27358     
    864000   1.0083794     -0.00032065305 -58.212956     -59.219655    
    865000   1.041754       0.0010477838  -58.260847     -59.300865    
    866000   1.0287472      0.00049928367 -58.241019     -59.268052    
    867000   1.0596463      0.00077690985 -58.220054     -59.277935    
    868000   0.99085469     0.00014236612 -58.274229     -59.263433    
    869000   1.0575959      0.00047227386 -58.191555     -59.247388    
    870000   0.93807067    -0.00036505139 -58.306904     -59.243411    
    871000   0.91849858    -0.00015950484 -58.349795     -59.266763    
    872000   1.0503341      0.00096774393 -58.24016      -59.288744    
    873000   1.0058842     -0.00027340128 -58.223067     -59.227275    
    874000   1.0376675      0.00022773638 -59.255168     -60.291106    
    875000   0.97616009    -0.00021141741 -59.326517     -60.30105     
    876000   1.0259037      0.0005425546  -59.302104     -60.326297    
    877000   0.97825764     0.00021509668 -59.358727     -60.335354    
    878000   0.98780844    -0.0001714479  -59.311778     -60.29794     
    879000   0.96905875    -0.0002009409  -59.33254      -60.299983    
    880000   1.0048242      0.00018335318 -59.300167     -60.303317    
    881000   1.0610538     -0.00015828158 -59.208622     -60.267908    
    882000   0.98431249     0.00045943798 -59.34291      -60.325582    
    883000   0.99623484     0.0004741467  -59.341471     -60.336046    
    884000   1.0686194      0.00081558836 -59.264027     -60.330866    
    885000   0.96966828     1.8336952e-05 -59.342587     -60.310639    
    886000   1.046344       0.00027190783 -59.263512     -60.308112    
    887000   0.96774742    -0.00036316553 -59.323056     -60.289191    
    888000   1.0196869      9.1696032e-05 -59.28332      -60.301307    
    889000   0.99090553     0.000180781   -59.323296     -60.31255     
    890000   0.93306906    -0.00013290155 -59.393273     -60.324787    
    891000   0.94438807     0.00058683726 -59.416222     -60.359036    
    892000   1.062882       0.00022211795 -59.221934     -60.283045    
    893000   0.99427509    -0.00037921881 -59.283467     -60.276085    
    894000   0.97738845    -0.00015657312 -59.325727     -60.301487    
    895000   1.0358272      0.00017099435 -59.26139      -60.295491    
    896000   1.0401101     -0.0004385444  -59.221168     -60.259544    
    897000   0.98382817     0.00036560807 -59.353143     -60.335332    
    898000   1.0195345      0.00042657892 -59.310464     -60.328299    
    899000   1.0300613      0.00039266661 -59.291966     -60.320311    
    900000   0.97985218     0.00030901458 -59.346051     -60.32427     
    901000   1.0158936      0.00028536489 -59.297127     -60.311328    
    902000   1.10691        0.0012215967  -59.239608     -60.344673    
    903000   0.95784333     0.00024361936 -59.371792     -60.328039    
    904000   0.95222609     0.00036733758 -59.399801     -60.35044     
    905000   0.99758318     9.9205104e-05 -59.312361     -60.308282    
    906000   0.96810039    -0.00039621645 -59.327036     -60.293522    
    907000   0.95061611     0.00016165212 -59.380572     -60.329604    
    908000   0.99926738     0.0011718181  -59.366946     -60.364548    
    909000   1.0267841      0.00035214508 -59.290818     -60.315891    
    910000   0.98740724     0.00025751449 -59.337699     -60.323461    
    911000   0.9804965      0.00044648189 -59.358813     -60.337676    
    912000   0.95914655    -1.438513e-05  -59.352758     -60.310306    
    913000   1.075466       0.0012418742  -59.278576     -60.352249    
    914000   0.94671388     1.503853e-05  -59.387326     -60.332462    
    915000   1.0206809      0.00012143537 -59.285189     -60.304169    
    916000   0.99857217     0.00037242101 -59.334971     -60.331878    
    917000   1.1017368      0.00081230006 -59.211854     -60.311755    
    918000   0.99353414     0.00059160956 -59.348261     -60.340139    
    919000   0.97616061     7.5953142e-05 -59.342405     -60.316939    
    920000   0.9863925      0.00020880701 -59.329769     -60.314517    
    921000   1.007358      -0.00071799502 -59.253952     -60.259631    
    922000   1.0291216      0.0010422389  -59.332989     -60.360396    
    923000   1.0100248      0.00037512065 -59.310902     -60.319243    
    924000   1.0162045      0.00010928287 -59.281689     -60.2962      
    925000   0.93603975    -3.4512397e-05 -59.393064     -60.327543    
    926000   0.99538866     0.00056488427 -59.347611     -60.34134     
    927000   1.0146822      0.00022130307 -59.291179     -60.30417     
    928000   1.0187853      0.0007096084  -59.331171     -60.348258    
    929000   0.95597751    -4.9910065e-05 -59.36541      -60.319794    
    930000   0.98316616     0.00010549768 -59.345605     -60.327132    
    931000   0.98591723     0.00036045111 -59.345851     -60.330125    
    932000   1.0561384      0.0010851127  -59.297532     -60.351911    
    933000   0.96187221    -0.00064374269 -59.313081     -60.27335     
    934000   1.0232175      0.00044055101 -59.299226     -60.320738    
    935000   0.95383397     0.00029426853 -59.381795     -60.334039    
    936000   1.0383128      0.00027067852 -59.253441     -60.290023    
    937000   0.99899574    -0.00013901502 -59.290121     -60.287452    
    938000   1.0034258      0.00051441845 -59.316991     -60.318744    
    939000   0.95306174     9.5342468e-05 -59.368427     -60.3199      
    940000   1.0275036      0.00058645168 -59.301881     -60.327672    
    941000   1.0237963      0.00075785323 -59.311449     -60.333539    
    942000   0.96380708    -2.8313329e-05 -59.353133     -60.315334    
    943000   1.1036751     -0.00012786616 -59.153575     -60.255411    
    944000   0.98445909     0.00064372655 -59.363185     -60.346004    
    945000   0.96095729     0.00041547053 -59.379092     -60.338448    
    946000   0.95729255    -2.2421572e-05 -59.366848     -60.322545    
    947000   0.94930196     0.00035116804 -59.395691     -60.343411    
    948000   0.93720027    -0.00031215999 -59.368959     -60.304597    
    949000   0.95360981     0.00019948994 -59.386592     -60.338613    
    950000   0.97521874    -0.00059211073 -59.290537     -60.26413     
    951000   1.0028391     -0.00040989419 -59.272004     -60.273171    
    952000   0.95247537    -0.0005236341  -59.342801     -60.293689    
    953000   1.0587011      0.00060538206 -59.262263     -60.3192      
    954000   0.943378      -0.00049500179 -59.34004      -60.281845    
    955000   1.0174372      0.00024948751 -59.299118     -60.31486     
    956000   1.0072159      0.00042787497 -59.326391     -60.331928    
    957000   1.0029575      0.00032580813 -59.316931     -60.318217    
    958000   1.0017577     -9.7206304e-05 -59.292064     -60.292152    
    959000   1.0227451      0.00022026896 -59.279692     -60.300732    
    960000   0.99375004     0.00060324654 -59.360371     -60.352465    
    961000   0.9914001      6.5857013e-05 -59.307885     -60.297633    
    962000   1.047511       0.00062185026 -59.280537     -60.326302    
    963000   1.0633954      0.00050064777 -59.244392     -60.306015    
    964000   0.94465575    -0.00049880043 -59.346063     -60.289145    
    965000   0.96634889     0.00016168321 -59.363351     -60.32809     
    966000   1.0113752      0.0011208918  -59.35276      -60.36245     
    967000   0.97468292     0.00013274319 -59.343205     -60.316263    
    968000   1.0257317      0.00016060119 -59.268135     -60.292157    
    969000   1.0318315     -9.9712161e-05 -59.256684     -60.286795    
    970000   1.0024924      0.00048734796 -59.318505     -60.319326    
    971000   0.9495978     -0.00064810029 -59.318671     -60.266686    
    972000   0.99465479     0.0004265847  -59.343397     -60.336394    
    973000   1.013315       0.00031489949 -59.292276     -60.303902    
    974000   1.0402656      0.00084411233 -59.301399     -60.339931    
    975000   1.0099594      0.00076937601 -59.334053     -60.342329    
    976000   1.0164054      0.00075628454 -59.325284     -60.339995    
    977000   1.0261054      0.00025981317 -59.288633     -60.313028    
    978000   0.9172624     -0.00068398847 -59.370577     -60.286311    
    979000   0.99578812    -0.00021030692 -59.293309     -60.287437    
    980000   0.92467874    -0.00029426809 -59.388828     -60.311965    
    981000   0.93788263     0.00030793941 -59.40899      -60.34531     
    982000   0.94600584    -0.00071703895 -59.332932     -60.277361    
    983000   1.0345479      0.00058726929 -59.284601     -60.317425    
    984000   0.9519771      0.00054857056 -59.39847      -60.34886     
    985000   1.007247       0.00044246186 -59.311464     -60.317032    
    986000   1.0581778      0.00050022826 -59.260129     -60.316543    
    987000   0.93443658     0.0005432443  -59.428866     -60.361745    
    988000   1.0168379      0.00083342328 -59.327044     -60.342188    
    989000   1.023713      -9.2239349e-05 -59.273293     -60.2953      
    990000   1.0218571      0.00076209937 -59.317099     -60.337253    
    991000   0.95032483    -0.00073810732 -59.321839     -60.27058     
    992000   0.95794986    -0.00029381572 -59.34337      -60.299723    
    993000   1.0075535      0.00061054462 -59.33139      -60.337264    
    994000   1.00308        0.00071640636 -59.344451     -60.34586     
    995000   1.0060021     -0.00021123181 -59.275601     -60.279926    
    996000   0.99514975     0.0002730116  -59.328162     -60.321653    
    997000   1.0197506      0.00077493154 -59.332865     -60.350916    
    998000   0.98853857     0.00050306136 -59.355525     -60.342416    
    999000   0.99962113     0.00068019274 -59.352902     -60.350857    
   1000000   1.0675367      0.00060013805 -59.236202     -60.30196     
Loop time of 91.3873 on 1 procs for 1000000 steps with 600 atoms

Performance: 9454267.440 tau/day, 10942.439 timesteps/s
98.8% CPU use with 1 MPI tasks x no OpenMP threads

MPI task timing breakdown:
Section |  min time  |  avg time  |  max time  |%varavg| %total
---------------------------------------------------------------
Pair    | 63.092     | 63.092     | 63.092     |   0.0 | 69.04
Bond    | 0.044399   | 0.044399   | 0.044399   |   0.0 |  0.05
Neigh   | 11.585     | 11.585     | 11.585     |   0.0 | 12.68
Comm    | 1.0207     | 1.0207     | 1.0207     |   0.0 |  1.12
Output  | 0.52172    | 0.52172    | 0.52172    |   0.0 |  0.57
Modify  | 13.117     | 13.117     | 13.117     |   0.0 | 14.35
Other   |            | 2.007      |            |       |  2.20

Nlocal:            600 ave         600 max         600 min
Histogram: 1 0 0 0 0 0 0 0 0 0
Nghost:             20 ave          20 max          20 min
Histogram: 1 0 0 0 0 0 0 0 0 0
Neighs:           6868 ave        6868 max        6868 min
Histogram: 1 0 0 0 0 0 0 0 0 0

Total # of neighbors = 6868
Ave neighs/atom = 11.446667
Ave special neighs/atom = 0
Neighbor list builds = 220771
Dangerous builds = 63
Total wall time: 0:01:31
