fix fLANG all langevin 1.0 1.0 1.0 100
neigh_modify exclude molecule/intra all
fix rigidNVE linked_vesicle rigid/nve molecule
  1 rigid bodies with 5 atoms
fix NVE synapsin nve 1.0 1.0 1.0

    ##======================================##
    ## Output
    ##======================================##

thermo 1000
thermo_style custom step temp press etotal epair
thermo_modify flush yes
timestep 0.01

    ##======================================##
    ## Equilibration before output
    ##======================================##


    ##======================================##
    ## Run with output
    ##======================================##

fix enforce_2d all enforce2d
dump 2 all custom 1000 Results_eps_attr8_eps_rep1_range2_attr_with_repFalse_n_synapsin400_n_vesicles1/Movie_2d_eps_attr8_eps_rep1_range2_attr_with_repFalse_n_synapsin400_n_vesicles1.xyz id type mol x y z
run 1000000
Generated 0 of 3 mixed pair_coeff terms from geometric mixing rule
Neighbor list info ...
  update every 1 steps, delay 1 steps, check yes
  max neighbors/atom: 2000, page size: 100000
  master list distance cutoff = 11.52462
  ghost atom cutoff = 11.52462
  binsize = 5.7623102, bins = 55 55 1
  1 neighbor lists, perpetual/occasional/extra = 1 0 0
  (1) pair cosine/squared, perpetual
      attributes: half, newton on
      pair build: half/bin/newton
      stencil: half/bin/2d
      bin: standard
Per MPI rank memory allocation (min/avg/max) = 8.526 | 8.526 | 8.526 Mbytes
   Step          Temp          Press          TotEng         E_pair    
         0   0.99441908    -0.013071225    0.98336998     0            
      1000   1.052877       0.0040548885   1.0411809      2.5044906e-06
      2000   0.97902644     0.0030040622   0.96849889     0.00035052091
      3000   1.0601207      0.0035583022   1.0483416      0            
      4000   1.0466423      0.0043625821   1.0350129      0            
      5000   1.0005436      0.0035020426   0.98945454     2.8061539e-05
      6000   0.97028404     0.0030784247   0.95950311     0            
      7000   0.9429228      0.0035389451   0.9342467      0.001800821  
      8000   1.070792       0.0042930144   1.0588943      0            
      9000   1.099818       0.0040939823   1.0875978      0            
     10000   1.0681135      0.0046403144   1.0440941     -0.012151486  
     11000   0.96698482     0.0038302633   0.93831816    -0.017922385  
     12000   0.93074307     0.0040394611   0.90074871    -0.019652774  
     13000   0.96659099     0.0032274433   0.93717185    -0.018679235  
     14000   1.0508619      0.0052419199   1.0031067     -0.036078927  
     15000   0.96241112     0.0046372808   0.91593893    -0.03577873   
     16000   0.96353745     0.0044770684   0.9180247     -0.034806781  
     17000   1.0006256      0.0048895132   0.95792843    -0.031579091  
     18000   1.0832904      0.0043883696   1.0362764     -0.034977371  
     19000   0.99525991     0.0042387751   0.92755713    -0.056644341  
     20000   0.9947237      0.0043703905   0.92731324    -0.056357975  
     21000   0.96469598     0.0049055254   0.90066995    -0.053307183  
     22000   0.90348792     0.0030512527   0.83679977    -0.056649395  
     23000   0.90703433     0.0044981492   0.8491698     -0.04778637   
     24000   0.95586384     0.0034393702   0.90665677    -0.03858636   
     25000   0.95040685     0.0028480903   0.90516803    -0.034678749  
     26000   0.97437817     0.0044684313   0.92861801    -0.034933741  
     27000   1.0095942      0.0039349567   0.96291007    -0.035466413  
     28000   1.0175817      0.0049583484   0.96702453    -0.039250682  
     29000   1.0345152      0.0045986933   0.98714151    -0.035879113  
     30000   0.98275614     0.0037334424   0.93503727    -0.036799353  
     31000   0.97873371     0.0046799855   0.91475288    -0.053106007  
     32000   1.021865       0.0033661998   0.95369556    -0.056815396  
     33000   1.033859       0.0039849363   0.94866865    -0.073703017  
     34000   0.95156762     0.002849143    0.86323819    -0.077756455  
     35000   1.0414564      0.0032812123   0.91822108    -0.11166362   
     36000   0.9783327      0.0040506963   0.86328845    -0.10417389   
     37000   1.0080452      0.00413884     0.89213189    -0.10471285   
     38000   1.0011096      0.0046899097   0.88192114    -0.10806505   
     39000   0.90779629     0.0043221472   0.78952645    -0.10818321   
     40000   1.0355533      0.0045225656   0.9174535     -0.10659368   
     41000   0.93427764     0.0049116458   0.81856103    -0.10533574   
     42000   1.0135871      0.0040435354   0.89588703    -0.10643801   
     43000   0.99689586     0.0032128909   0.87943794    -0.1063813    
     44000   1.0459198      0.0046429115   0.92840787    -0.10589059   
     45000   1.0253626      0.0038719965   0.90029082    -0.11367886   
     46000   1.0679481      0.0041148699   0.94998593    -0.10609609   
     47000   0.99437007     0.0033231028   0.87928485    -0.10403666   
     48000   1.0733654      0.0046033864   0.94960702    -0.1118321    
     49000   1.0232434      0.0045025628   0.90533678    -0.10653721   
     50000   0.94960271     0.0037246547   0.85385236    -0.0851992    
     51000   0.98092752     0.005384977    0.86603746    -0.10399087   
     52000   1.0946108      0.005074921    0.97873168    -0.10371674   
     53000   1.0273826      0.0036465944   0.91797112    -0.097996086  
     54000   1.0750001      0.0052165791   0.95380154    -0.10925411   
     55000   0.99884105     0.0047905529   0.86948804    -0.11825478   
     56000   1.0360159      0.003562621    0.9126941     -0.11181056   
     57000   1.0013917      0.0046113848   0.86753306    -0.12273203   
     58000   0.97205953     0.0041088803   0.84387483    -0.11738403   
     59000   0.99805186     0.0040235802   0.87421543    -0.11274697   
     60000   1.0440713      0.0026114036   0.88535689    -0.14711363   
     61000   1.0591199      0.0032344758   0.92398322    -0.12336872   
     62000   0.97345148     0.0045351617   0.82952276    -0.1331126    
     63000   1.081952       0.0054735934   0.9284205     -0.1415098    
     64000   1.0010397      0.0031416365   0.84294145    -0.14697556   
     65000   1.0717835      0.004146204    0.94090882    -0.11896599   
     66000   1.0408178      0.0037142865   0.89628651    -0.13296665   
     67000   1.0041156      0.0042796709   0.87210673    -0.12085203   
     68000   1.0002918      0.0049316523   0.86904624    -0.12013123   
     69000   0.9968202      0.0048161185   0.86274848    -0.12299594   
     70000   1.0467518      0.0034990749   0.91090921    -0.12421203   
     71000   0.9825538      0.0036442459   0.84091017    -0.13072637   
     72000   1.0395502      0.0041315313   0.91044845    -0.11755122   
     73000   0.97157559     0.0040760326   0.85398176    -0.10679854   
     74000   0.92333565     0.0034742362   0.78904853    -0.12402783   
     75000   1.0467332      0.0039048521   0.91248662    -0.12261618   
     76000   1.0509035      0.0044678519   0.92181785    -0.11740895   
     77000   1.0235711      0.0047161206   0.88452568    -0.12767236   
     78000   1.0061582      0.0038482386   0.87973306    -0.11524556   
     79000   1.0221811      0.0044831489   0.8858863     -0.1249372    
     80000   1.0655487      0.0040386543   0.92405344    -0.12965579   
     81000   0.96674538     0.0042413874   0.84059693    -0.11540683   
     82000   1.0127737      0.0036926271   0.88055384    -0.1209668    
     83000   0.98625514     0.0037565258   0.82765976    -0.14763699   
     84000   0.92136852     0.0032355706   0.76794708    -0.14318401   
     85000   0.96118255     0.0039444936   0.78566707    -0.16483567   
     86000   1.0070437      0.0035396962   0.84971141    -0.14614293   
     87000   0.98391205     0.0048053401   0.82854642    -0.14443328   
     88000   0.99830918     0.003127243    0.83996841    -0.14724845   
     89000   0.95839631     0.0037476102   0.78598265    -0.16176481   
     90000   0.98467777     0.0041159235   0.83071329    -0.14302361   
     91000   1.0344808      0.0048030041   0.86096052    -0.16202603   
     92000   0.99451569     0.0040183343   0.84386945    -0.13959607   
     93000   1.0264724      0.0046124727   0.87375875    -0.14130845   
     94000   0.99359949     0.0035092862   0.8291918     -0.15336769   
     95000   1.0156103      0.0022817305   0.84891799    -0.15540773   
     96000   1.0554258      0.0051761198   0.88676178    -0.15693711   
     97000   0.94998802     0.0032845378   0.7782193     -0.16121329   
     98000   0.96946765     0.0054195538   0.80909429    -0.1496015    
     99000   0.98361604     0.0041270702   0.80733624    -0.16535073   
    100000   0.97556484     0.0040465529   0.81396757    -0.15075767   
    101000   1.1149692      0.004215825    0.94520546    -0.15737518   
    102000   0.97224199     0.0040531603   0.80781547    -0.15362383   
    103000   1.097743       0.0046933249   0.93625941    -0.14928645   
    104000   0.96913129     0.0048634646   0.7922277     -0.16613547   
    105000   0.97315532     0.003956178    0.8142532     -0.14808928   
    106000   0.97247698     0.0033351732   0.8099981     -0.15167358   
    107000   1.0155454      0.0044330179   0.84040114    -0.16386038   
    108000   0.94480009     0.0047057855   0.79208008    -0.14222223   
    109000   0.97539214     0.0041028093   0.83409342    -0.13046103   
    110000   1.0521656      0.0048292834   0.89248197    -0.14799289   
    111000   1.0342748      0.0037694433   0.86467558    -0.15810728   
    112000   1.0184108      0.0042060664   0.84683623    -0.16025888   
    113000   1.0286644      0.0038781733   0.87500952    -0.14222533   
    114000   1.0377197      0.0037197542   0.90017726    -0.12601222   
    115000   1.1164879      0.0043663859   0.9539957     -0.15008678   
    116000   1.0318788      0.0045818421   0.86997789    -0.15043559   
    117000   1.0372786      0.0040522056   0.8573481     -0.16840516   
    118000   1.0577828      0.0053335425   0.90448721    -0.14154247   
    119000   1.0476021      0.0041816596   0.87564567    -0.16031642   
    120000   1.0402239      0.004150796    0.88157606    -0.14708976   
    121000   1.0668071      0.0046286895   0.90002049    -0.1549332    
    122000   0.9901967      0.0053636195   0.83014286    -0.14905165   
    123000   1.0322124      0.0037485543   0.85946467    -0.16127871   
    124000   0.97035731     0.004850663    0.80378857    -0.15578699   
    125000   0.99280941     0.0041699219   0.80900386    -0.17277433   
    126000   0.99632781     0.0045572647   0.81445823    -0.17079927   
    127000   1.000293       0.0040640668   0.81391599    -0.17526262   
    128000   1.0916197      0.004656123    0.90952479    -0.16996578   
    129000   1.0297797      0.0044877375   0.84766174    -0.17067591   
    130000   1.0107859      0.004630764    0.82034211    -0.17921286   
    131000   1.004822       0.0036252975   0.81351066    -0.18014664   
    132000   0.94337409     0.0045148833   0.77359052    -0.15930164   
    133000   0.97918254     0.0035452934   0.82193423    -0.1463685    
    134000   1.0561666      0.0045583029   0.89188377    -0.15254761   
    135000   1.063785       0.0045155973   0.90221108    -0.1497541    
    136000   0.91309934     0.0033341958   0.75042643    -0.15252736   
    137000   0.97686522     0.0042057249   0.78620178    -0.17980938   
    138000   0.96436103     0.0038003138   0.78461708    -0.16902883   
    139000   0.96136459     0.003562991    0.77979995    -0.17088281   
    140000   0.99648306     0.0038811065   0.810847      -0.17456403   
    141000   0.99122705     0.0046733396   0.79575092    -0.1844625    
    142000   1.0373543      0.0040091367   0.84479962    -0.18102853   
    143000   0.94945259     0.00302091     0.76166044    -0.17724268   
    144000   1.0517425      0.0048968783   0.86264542    -0.17741108   
    145000   0.92233112     0.0045713531   0.715862      -0.196221     
    146000   0.94431475     0.0039044104   0.74929104    -0.18453132   
    147000   1.0404045      0.0035725486   0.84003058    -0.18881391   
    148000   0.99444787     0.0032402817   0.78833042    -0.19506803   
    149000   0.9308739      0.0035742742   0.72637433    -0.19415654   
    150000   1.0088791      0.0030649123   0.81552543    -0.18214386   
    151000   0.97153262     0.0044201516   0.77251527    -0.18822255   
    152000   1.0595792      0.0043077233   0.85293253    -0.19487352   
    153000   0.99003152     0.0027952997   0.80368818    -0.17534298   
    154000   1.0478492      0.0041852214   0.84535223    -0.19085415   
    155000   1.1003518      0.0045090222   0.88395064    -0.20417507   
    156000   1.0797986      0.0035288586   0.85735157    -0.21044926   
    157000   0.96060082     0.0044025464   0.74610625    -0.20382123   
    158000   1.0428582      0.0046807423   0.81184191    -0.21942901   
    159000   0.99353661     0.0040253209   0.77731666    -0.20518065   
    160000   1.0120788      0.004008411    0.7843417     -0.21649175   
    161000   0.95798189     0.004416327    0.71165555    -0.23568209   
    162000   1.0537139      0.0043862986   0.82459685    -0.21740913   
    163000   1.0287078      0.0055513087   0.79223635    -0.22504135   
    164000   1.0474644      0.0035517164   0.81932652    -0.21649934   
    165000   1.0881254      0.0049660449   0.85620168    -0.21983349   
    166000   0.93174048     0.0040496043   0.6948194     -0.22656841   
    167000   0.99955058     0.0041745765   0.76883782    -0.21960664   
    168000   1.0821693      0.0058215063   0.83879645    -0.23134873   
    169000   1.0260263      0.0039635614   0.80734993    -0.20727612   
    170000   0.99889345     0.0044275387   0.75271501    -0.23507962   
    171000   1.0032061      0.0045084749   0.75661149    -0.23544783   
    172000   1.0495501      0.0049038774   0.79953046    -0.23835794   
    173000   1.0652902      0.0027687523   0.80661221    -0.24684146   
    174000   1.0550187      0.0038206697   0.79961592    -0.24368036   
    175000   0.99917236     0.004105832    0.74190915    -0.2461613    
    176000   0.94630289     0.004542182    0.69497712    -0.2408113    
    177000   0.96596308     0.003957021    0.72940333    -0.22582682   
    178000   0.95930239     0.0028460084   0.72532714    -0.22331634   
    179000   1.0265062      0.0035113982   0.76625535    -0.24884526   
    180000   0.9674899      0.0042736575   0.66569956    -0.29104045   
    181000   0.97815145     0.003089289    0.67819618    -0.28908692   
    182000   0.97669142     0.0032830152   0.68058368    -0.28525561   
    183000   1.0626979      0.0049837703   0.7727097     -0.27818048   
    184000   1.0746569      0.0033938182   0.76030012    -0.30241613   
    185000   1.0437081      0.0034372981   0.73972208    -0.29238923   
    186000   1.0063824      0.0042181055   0.6960215     -0.29917886   
    187000   0.98930857     0.0042399227   0.68905629    -0.28925996   
    188000   1.0398986      0.0045647857   0.72566564    -0.30267851   
    189000   0.92059555     0.0022352002   0.64425635    -0.26611036   
    190000   1.0734721      0.0036184684   0.79046287    -0.27108181   
    191000   1.0558876      0.0041260411   0.74761675    -0.29653875   
    192000   1.0373358      0.0053582882   0.72639173    -0.29941814   
    193000   1.0113459      0.0039705495   0.70362587    -0.29648283   
    194000   0.98746952     0.0027684417   0.68017162    -0.29632602   
    195000   1.0163744      0.0043201932   0.72901893    -0.27606244   
    196000   1.066467       0.003645431    0.73658484    -0.31803249   
    197000   0.9628714      0.0029666574   0.6876105     -0.26456233   
    198000   0.93102486     0.0038616451   0.62825754    -0.29242259   
    199000   0.95420736     0.0041125421   0.63910589    -0.30449916   
    200000   1.0010839      0.0039158376   0.70017466    -0.28978611   
    201000   0.99046769     0.0020093563   0.68861231    -0.29085018   
    202000   1.0121446      0.0034101713   0.69357339    -0.30732513   
    203000   0.9433185      0.0038725982   0.63896393    -0.29387325   
    204000   0.97555844     0.0042370146   0.66962177    -0.29509713   
    205000   0.94247018     0.0031952456   0.62947008    -0.30252821   
    206000   0.95678255     0.0044160801   0.65982809    -0.28632354   
    207000   1.0497514      0.0050143756   0.73475559    -0.30333189   
    208000   0.97837208     0.00387167     0.65320424    -0.31429704   
    209000   1.0321184      0.0037337673   0.72945907    -0.29119139   
    210000   1.0015536      0.0047805405   0.71887627    -0.27154893   
    211000   1.0658737      0.002970538    0.75962464    -0.29440605   
    212000   0.98799013     0.0037125864   0.72759577    -0.24941669   
    213000   0.97291315     0.0044809626   0.69108358    -0.27101943   
    214000   1.0397044      0.0039483606   0.72766102    -0.30049107   
    215000   1.0299979      0.0055524139   0.71387901    -0.30467449   
    216000   0.99768592     0.0035218655   0.6883218     -0.29827872   
    217000   0.94530204     0.0030300549   0.63227131    -0.30252737   
    218000   1.0079637      0.004305852    0.69531696    -0.30144716   
    219000   1.0012735      0.0040527723   0.69109661    -0.29905164   
    220000   1.0472524      0.0045706962   0.69621643    -0.33939979   
    221000   1.1090942      0.0036732904   0.77852278    -0.31824813   
    222000   1.0168036      0.0035778237   0.66576279    -0.33974302   
    223000   0.96766505     0.0031133952   0.62681132    -0.33010189   
    224000   1.0328835      0.0044491556   0.70392624    -0.31748076   
    225000   1.0006135      0.0027513401   0.70655016    -0.28294543   
    226000   0.96537798     0.0030782819   0.64005998    -0.31459157   
    227000   1.0505496      0.0047555662   0.75266497    -0.28621186   
    228000   1.0585318      0.0044942684   0.74255817    -0.30421221   
    229000   1.0628572      0.0042390027   0.76938664    -0.28166102   
    230000   0.98673743     0.0047157948   0.66470244    -0.31107125   
    231000   1.0483549      0.0045721524   0.74383244    -0.29287405   
    232000   1.0764915      0.0042566371   0.75579273    -0.30873771   
    233000   1.0075148      0.0045153127   0.69632064    -0.29999952   
    234000   0.92291063     0.0025624739   0.60948511    -0.30317096   
    235000   1.0067793      0.0038242772   0.68416128    -0.31143163   
    236000   1.0960125      0.0045436619   0.75961863    -0.32421594   
    237000   1.0584035      0.0029073708   0.74957722    -0.29706619   
    238000   0.99364929     0.0049433442   0.66521926    -0.31738948   
    239000   0.92681994     0.0032093763   0.62452232    -0.29199962   
    240000   0.98387916     0.0027696917   0.69200407    -0.28094309   
    241000   0.92949754     0.0030673913   0.61933646    -0.29983333   
    242000   0.95719897     0.0040322384   0.62288183    -0.3236816    
    243000   0.92026322     0.0033642703   0.61903405    -0.29100403   
    244000   0.96113017     0.003396409    0.62656957    -0.32388138   
    245000   0.94025686     0.0026391714   0.62650779    -0.30330177   
    246000   0.96053519     0.0041335474   0.6061171     -0.34374547   
    247000   1.0874305      0.0046592824   0.73926518    -0.33608277   
    248000   1.011827       0.0038655593   0.66304233    -0.3375421    
    249000   1.0733036      0.0045685401   0.70279228    -0.35858574   
    250000   0.97348446     0.0030883268   0.63145423    -0.33121374   
    251000   0.94408427     0.0035247387   0.59425038    -0.33934407   
    252000   0.98846634     0.0042396177   0.64766743    -0.32981596   
    253000   1.0276401      0.0047495964   0.67334561    -0.34287628   
    254000   1.0152313      0.0039649765   0.65331091    -0.35064002   
    255000   0.95883372     0.003243972    0.58201755    -0.36616247   
    256000   0.9484823      0.0036864505   0.63135081    -0.3065928    
    257000   1.0060514      0.0038107919   0.65917313    -0.33569996   
    258000   1.0349659      0.0038991702   0.68834439    -0.33512189   
    259000   1.029837       0.003342399    0.67451358    -0.34388083   
    260000   0.89789088     0.0030477597   0.53692222    -0.35099209   
    261000   1.0171626      0.0045773425   0.64108411    -0.36477669   
    262000   0.94759093     0.003335198    0.56652229    -0.37053985   
    263000   0.94616879     0.0040343192   0.56997814    -0.36567766   
    264000   0.98194383     0.00393974     0.59921099    -0.37182235   
    265000   1.0112992      0.0036943441   0.6142889     -0.38577368   
    266000   0.9770935      0.0037723956   0.64016532    -0.32607159   
    267000   0.9555763      0.0047350976   0.60691812    -0.33804066   
    268000   0.99566142     0.0039033072   0.64369634    -0.34090217   
    269000   0.97212843     0.0039129156   0.60950764    -0.35181937   
    270000   1.039514       0.0032827373   0.69783403    -0.33012984   
    271000   1.018461       0.0045220671   0.66557886    -0.34156592   
    272000   0.95526297     0.0037211112   0.60437041    -0.34027853   
    273000   1.0107197      0.0033579386   0.65801208    -0.34147743   
    274000   1.0046185      0.0047015813   0.61943993    -0.37401613   
    275000   0.96969181     0.0033407411   0.60133216    -0.3575853    
    276000   1.0089656      0.0026753036   0.64309856    -0.35465635   
    277000   0.89489271     0.0021508122   0.52948569    -0.35546377   
    278000   1.0352077      0.0045206248   0.69764208    -0.32606328   
    279000   0.96865502     0.0048788415   0.6335986     -0.32429359   
    280000   0.99777852     0.0038087783   0.6515392     -0.33515289   
    281000   1.0687735      0.0050033036   0.70867542    -0.34822284   
    282000   1.0351489      0.0039289489   0.65577021    -0.367877     
    283000   0.89926772     0.0032870665   0.53998096    -0.3492949    
    284000   1.0435447      0.0034031867   0.6576215     -0.37432825   
    285000   1.0370031      0.0034758365   0.69404451    -0.33143636   
    286000   1.0238834      0.0057037633   0.66112873    -0.35137821   
    287000   0.97929471     0.0033803414   0.61671274    -0.35170092   
    288000   0.92144181     0.0040180768   0.55383359    -0.35736997   
    289000   0.98419609     0.0043465475   0.62388072    -0.34937986   
    290000   1.0139898      0.0035147456   0.66037082    -0.34235246   
    291000   0.96021088     0.0036400356   0.59188485    -0.35765702   
    292000   0.95903306     0.003995209    0.59414303    -0.3542341    
    293000   0.99616587     0.0033907538   0.60471181    -0.38038554   
    294000   0.96698094     0.0041067077   0.60268282    -0.35355389   
    295000   1.0176006      0.0035620258   0.66110486    -0.34518903   
    296000   0.90029092     0.0030608708   0.53230093    -0.35798676   
    297000   1.0434086      0.004394134    0.67825079    -0.35356439   
    298000   1.0430409      0.0031254669   0.65923902    -0.37221255   
    299000   0.96467725     0.0028928193   0.58569583    -0.36826279   
    300000   0.98178709     0.0027351067   0.65802749    -0.31285085   
    301000   0.9983843      0.0035154466   0.63875049    -0.34854065   
    302000   0.96746799     0.0031805916   0.64024207    -0.31647628   
    303000   1.0118352      0.0036448065   0.66895057    -0.33164203   
    304000   0.9495035      0.0025385788   0.62415713    -0.31479633   
    305000   0.98480198     0.0034079653   0.65315696    -0.32070277   
    306000   0.98623419     0.0030369598   0.66620689    -0.30906914   
    307000   1.0474311      0.0036693606   0.71852754    -0.31726545   
    308000   0.9809017      0.0040835353   0.66740339    -0.30259941   
    309000   0.93005111     0.0035616981   0.59482261    -0.3248946    
    310000   1.0073845      0.0039124403   0.69155355    -0.30463781   
    311000   0.98101557     0.0022339925   0.62926387    -0.34085153   
    312000   1.0513587      0.002703399    0.70269697    -0.33698001   
    313000   0.97634335     0.0033453079   0.64398903    -0.32150606   
    314000   0.94834264     0.0029660117   0.6350778     -0.30272771   
    315000   1.066471       0.0042075575   0.73641298    -0.31820831   
    316000   0.9299178      0.0035564206   0.5736591     -0.34592628   
    317000   0.95030451     0.0044896453   0.62492438    -0.31482119   
    318000   1.0806725      0.0037747084   0.7156482     -0.35301678   
    319000   1.0234602      0.0040990102   0.68979638    -0.32229203   
    320000   0.98460795     0.0036180248   0.64443289    -0.32923497   
    321000   0.90364389     0.0034974087   0.56888038    -0.32472302   
    322000   1.0125774      0.0033093254   0.67943335    -0.32189319   
    323000   1.0763068      0.0033558869   0.75231495    -0.31203289   
    324000   0.95768342     0.0039442331   0.59341835    -0.35362413   
    325000   1.0021431      0.0021046032   0.63627186    -0.35473634   
    326000   1.0599552      0.0034796419   0.73046325    -0.31771466   
    327000   1.046801       0.0058205645   0.68150403    -0.3536658    
    328000   0.9812144      0.0044384566   0.62687374    -0.34343828   
    329000   0.98570711     0.0039326219   0.61616781    -0.358587     
    330000   1.0618625      0.0026630813   0.7077035     -0.34236048   
    331000   1.0099811      0.0042330781   0.63347234    -0.36528677   
    332000   1.0578822      0.0039319332   0.70486638    -0.34126158   
    333000   0.9990761      0.0042857111   0.61863854    -0.36933672   
    334000   0.98840531     0.0048603954   0.64429086    -0.33313216   
    335000   0.95101912     0.0039819151   0.61240751    -0.32804473   
    336000   1.0437735      0.0038123006   0.70158043    -0.33059554   
    337000   1.0748288      0.003787924    0.75611952    -0.30676678   
    338000   1.065586       0.0043094324   0.7069352     -0.34681091   
    339000   1.0925034      0.004317006    0.74505269    -0.33531177   
    340000   1.0313931      0.0042752205   0.67554892    -0.34438428   
    341000   0.96329817     0.0035044787   0.62450838    -0.32808648   
    342000   0.95237667     0.0035454375   0.62550724    -0.31628747   
    343000   1.0249639      0.0038827297   0.68804206    -0.32553336   
    344000   1.1281523      0.00286984     0.81352164    -0.30209568   
    345000   0.94102713     0.0039996367   0.61084526    -0.31972602   
    346000   1.0117495      0.0046847146   0.68252764    -0.31798019   
    347000   1.1340835      0.0043155772   0.78043795    -0.34104464   
    348000   1.0063126      0.0042931827   0.66505271    -0.33007863   
    349000   0.98148441     0.0040212799   0.64887571    -0.32170332   
    350000   0.90377507     0.0032396568   0.56206518    -0.33166795   
    351000   0.96520671     0.0041732436   0.62442491    -0.33005728   
    352000   1.1024267      0.0060159566   0.76890774    -0.32126976   
    353000   1.00548        0.0038359676   0.66082393    -0.33348406   
    354000   0.94054313     0.0031105867   0.59056552    -0.33952714   
    355000   0.97368811     0.0039190255   0.62097288    -0.34189647   
    356000   0.98898295     0.0024131261   0.63250026    -0.34549399   
    357000   0.99781048     0.0036626237   0.64081236    -0.34591134   
    358000   0.95093574     0.0028726065   0.62058052    -0.31978928   
    359000   1.0011295      0.0028841296   0.68301719    -0.30698869   
    360000   0.95895453     0.0047841464   0.65015976    -0.29813971   
    361000   1.0535448      0.0042833771   0.74409974    -0.29773904   
    362000   1.0282056      0.0036291761   0.72143677    -0.29534431   
    363000   0.98634582     0.0030847204   0.67914987    -0.29623656   
    364000   0.96961456     0.0047037873   0.6546937     -0.30414737   
    365000   1.0447321      0.004213807    0.73521617    -0.2979078    
    366000   1.0305519      0.0037985162   0.72911394    -0.28998741   
    367000   0.98953205     0.0040089928   0.65429972    -0.32423754   
    368000   0.96360265     0.0034053024   0.62032132    -0.33257464   
    369000   0.90110536     0.0029537335   0.55805556    -0.33303751   
    370000   0.97455711     0.0034982387   0.63487831    -0.32885038   
    371000   1.0241429      0.0046418592   0.66694409    -0.34581949   
    372000   1.0630708      0.0048605962   0.70223004    -0.34902888   
    373000   0.98081903     0.0043697231   0.61510657    -0.35481448   
    374000   0.96753568     0.0042894387   0.62191245    -0.33487284   
    375000   1.0644685      0.0054824131   0.72030306    -0.33233803   
    376000   0.95693365     0.0029565274   0.63218681    -0.31411425   
    377000   0.97452281     0.0032001443   0.64000951    -0.32368526   
    378000   1.0500815      0.0040371678   0.73769836    -0.30071558   
    379000   0.99619418     0.0037922399   0.66932684    -0.31579852   
    380000   0.96282496     0.0045160684   0.64252852    -0.30959838   
    381000   1.0182284      0.0037304409   0.6720882     -0.3348266    
    382000   0.99701345     0.0040916347   0.66338995    -0.32254557   
    383000   1.0810303      0.0044188309   0.74301643    -0.32600238   
    384000   1.0386328      0.0036245824   0.70081876    -0.32627363   
    385000   0.98967799     0.0030223467   0.6513455     -0.32733607   
    386000   1.0452371      0.0045327068   0.71571953    -0.31790382   
    387000   0.9709985      0.0040264659   0.62963168    -0.33057794   
    388000   0.98689146     0.0054976208   0.67601725    -0.29990875   
    389000   1.0009619      0.0041835593   0.69848239    -0.29135775   
    390000   1.0128361      0.004371807    0.67551862    -0.32606378   
    391000   1.1088239      0.004073184    0.76034907    -0.33615459   
    392000   1.0023007      0.0036362864   0.66816497    -0.32299907   
    393000   1.0354492      0.0050443151   0.72720668    -0.2967375    
    394000   1.0648508      0.0038989786   0.73742207    -0.31559706   
    395000   1.0344895      0.0039277116   0.71473531    -0.30825988   
    396000   0.93109778     0.0033628912   0.58736411    -0.33338814   
    397000   1.0002866      0.0037078399   0.66930006    -0.31987224   
    398000   0.96568836     0.0036430136   0.63869974    -0.31625875   
    399000   0.91363143     0.0037468896   0.57484626    -0.32863371   
    400000   1.0542696      0.0040963805   0.7314531     -0.31110241   
    401000   1.0177949      0.0038192057   0.6625371     -0.34394896   
    402000   0.94268807     0.0042750128   0.62309497    -0.30911878   
    403000   1.0458863      0.0026584695   0.69593148    -0.33833389   
    404000   0.97148402     0.0032482103   0.60787366    -0.35281609   
    405000   1.0642013      0.0038070906   0.72401703    -0.32835979   
    406000   0.99969279     0.0036207926   0.6309215     -0.35766359   
    407000   0.98803987     0.003501635    0.6285492     -0.34851246   
    408000   1.0157716      0.0036508009   0.67296612    -0.33151909   
    409000   1.0631345      0.0045464745   0.69493388    -0.35638799   
    410000   0.97299011     0.0040545784   0.62759723    -0.33458188   
    411000   0.9438319      0.0043039394   0.58681043    -0.34653445   
    412000   0.99631266     0.0032292895   0.63235075    -0.35289177   
    413000   1.043045       0.0037872973   0.6737829     -0.3576727    
    414000   0.9811313      0.0026983095   0.62103423    -0.34919562   
    415000   0.96371751     0.0034381231   0.58568542    -0.36732411   
    416000   1.0543908      0.0044830372   0.67501173    -0.36766365   
    417000   0.94782574     0.0029765293   0.56562503    -0.37166931   
    418000   1.0063207      0.0037071859   0.62862982    -0.36650958   
    419000   0.90804088     0.0030213318   0.5239958     -0.37395574   
    420000   0.95568753     0.0044890681   0.58627449    -0.35879429   
    421000   1.0748355      0.0041619265   0.65837459    -0.4045183    
    422000   1.0427992      0.0027766566   0.63621897    -0.39499357   
    423000   1.0020152      0.0035111647   0.61110656    -0.37977518   
    424000   1.0001752      0.0040700751   0.58356755    -0.40549454   
    425000   1.0245734      0.0032644411   0.62987171    -0.38331752   
    426000   0.99282553     0.0053123089   0.59722253    -0.38457161   
    427000   0.93486463     0.0033351772   0.55817292    -0.36630433   
    428000   1.0627367      0.0045323672   0.67890267    -0.37202585   
    429000   0.92344793     0.0045585972   0.53366131    -0.37952609   
    430000   0.95360132     0.0027877978   0.54965058    -0.39335517   
    431000   0.93688464     0.0032533777   0.57401597    -0.35245884   
    432000   1.0616         0.0038777233   0.66370234    -0.38610208   
    433000   0.93371449     0.0023138587   0.53510832    -0.38823156   
    434000   0.9629852      0.0040467692   0.60035573    -0.35192963   
    435000   1.0683948      0.0035356958   0.68927182    -0.36725192   
    436000   0.98811635     0.0031873339   0.58906124    -0.38807603   
    437000   1.0312359      0.0029415729   0.65220505    -0.36757263   
    438000   0.93687454     0.003017055    0.54097352    -0.3854913    
    439000   1.0647391      0.0040789457   0.68756018    -0.36534848   
    440000   1.0076511      0.0035107014   0.6283774     -0.36807762   
    441000   1.0090342      0.0026439734   0.62534123    -0.37248144   
    442000   0.96958848     0.0033120549   0.56460365    -0.39421162   
    443000   1.037228       0.0034981932   0.67747688    -0.34822632   
    444000   0.95887175     0.0034135451   0.60840527    -0.33981235   
    445000   1.00949        0.0041623371   0.65373191    -0.34454151   
    446000   1.0276811      0.0045663794   0.67333836    -0.34292402   
    447000   1.0668546      0.0040469055   0.7305474     -0.32445327   
    448000   0.94019611     0.004520697    0.58090055    -0.34884894   
    449000   0.88355076     0.0037371447   0.53385418    -0.33987934   
    450000   0.97944127     0.003837578    0.62277135    -0.34578723   
    451000   0.92273439     0.0042647631   0.55237708    -0.3601047    
    452000   1.0379204      0.0033129513   0.67538964    -0.35099833   
    453000   1.0397177      0.0042339394   0.7046426     -0.32352271   
    454000   0.98892551     0.0028605546   0.6392545     -0.33868295   
    455000   0.9720253      0.004797667    0.60112819    -0.36009682   
    456000   0.98572106     0.0033062164   0.63040896    -0.34435964   
    457000   1.1093011      0.0041495823   0.77448137    -0.32249415   
    458000   1.0171         0.0041297199   0.66987063    -0.33592821   
    459000   1.0244388      0.0042838384   0.64969471    -0.36336146   
    460000   0.92216022     0.0033374979   0.58885672    -0.32305727   
    461000   1.0658354      0.0043495282   0.70340809    -0.3505847    
    462000   0.93594295     0.0046817741   0.60367603    -0.32186755   
    463000   0.99895352     0.0031290941   0.63913458    -0.34871947   
    464000   0.91617452     0.0040569316   0.59249548    -0.31349932   
    465000   1.0095134      0.0030637117   0.69979359    -0.29850298   
    466000   0.96242571     0.003444895    0.66362337    -0.28810873   
    467000   0.99662107     0.0045588069   0.71219148    -0.27335603   
    468000   0.98041301     0.0041464146   0.67092947    -0.29859006   
    469000   1.0546943      0.0029372907   0.74331816    -0.29965734   
    470000   0.99809284     0.0038538556   0.69048141    -0.29652151   
    471000   1.0140814      0.0042493991   0.73682229    -0.26599154   
    472000   1.0337154      0.0029887363   0.72444872    -0.29778097   
    473000   1.0689519      0.0045783117   0.75379895    -0.30327572   
    474000   1.0302388      0.0055525656   0.71740548    -0.30138625   
    475000   1.0411705      0.0033681215   0.69527996    -0.33432198   
    476000   0.99964366     0.0047745668   0.68032475    -0.30821176   
    477000   1.0709287      0.0043992439   0.75264967    -0.30637977   
    478000   0.94549426     0.0038966225   0.64395947    -0.2910293    
    479000   1.0071972      0.0044696367   0.68899335    -0.30701279   
    480000   1.0215684      0.0046808077   0.70976905    -0.30044862   
    481000   1.0324147      0.0033475652   0.72075108    -0.30019233   
    482000   1.1015185      0.0052673328   0.77020892    -0.31907047   
    483000   0.91872011     0.0033184858   0.58620078    -0.32231132   
    484000   1.007815       0.0032902498   0.67483422    -0.32178285   
    485000   0.98405433     0.0036836587   0.63062216    -0.34249823   
    486000   0.98872685     0.0046541342   0.64306003    -0.33468096   
    487000   0.94526606     0.0030756677   0.58816339    -0.34659972   
    488000   0.9711762      0.0025909154   0.6370019     -0.32338345   
    489000   0.99100773     0.0041999455   0.63358417    -0.34641236   
    490000   1.049677       0.0035160409   0.70427873    -0.33373517   
    491000   0.99041732     0.002813716    0.63959701    -0.33981568   
    492000   0.98708993     0.0026580137   0.62002512    -0.35609715   
    493000   1.0105323      0.0036665637   0.6636241     -0.33568008   
    494000   0.99315777     0.0036976143   0.62853223    -0.35359045   
    495000   0.96145157     0.0042081979   0.598841      -0.35192777   
    496000   0.94905578     0.0042927909   0.60278328    -0.33572744   
    497000   1.0472688      0.0041700613   0.6962706     -0.33936185   
    498000   0.99617056     0.004570512    0.66083301    -0.32426899   
    499000   1.0018308      0.003934633    0.67697993    -0.31371943   
    500000   0.97211846     0.0045568486   0.64462529    -0.31669185   
    501000   1.06078        0.0037777645   0.72207979    -0.32691377   
    502000   1.0333302      0.0048364463   0.71386503    -0.30798368   
    503000   0.98968594     0.0039075189   0.65459945    -0.32408998   
    504000   1.0140722      0.0037210564   0.66130804    -0.34149671   
    505000   0.97071785     0.0047126055   0.62307098    -0.33686112   
    506000   0.99369582     0.0035848073   0.6806982     -0.30195656   
    507000   1.0313604      0.0042238838   0.68290986    -0.33699093   
    508000   0.96608739     0.0045111505   0.630375      -0.32497809   
    509000   1.0302266      0.0047921215   0.67259168    -0.346188     
    510000   1.02621        0.0045622378   0.71211798    -0.30268968   
    511000   1.011635       0.0032287439   0.67724862    -0.32314595   
    512000   1.0733158      0.0041791544   0.7250706     -0.33631945   
    513000   1.0415595      0.0040359839   0.69717333    -0.33281333   
    514000   1.089591       0.0045252503   0.75278474    -0.32469967   
    515000   0.99414286     0.0037100116   0.6881949     -0.29490193   
    516000   1.0364205      0.003907641    0.73027889    -0.29462586   
    517000   1.0183994      0.0036225923   0.66029671    -0.3467871    
    518000   1.0091046      0.0036456754   0.63861713    -0.35927518   
    519000   0.99589876     0.0046115222   0.61591614    -0.36891708   
    520000   1.0885811      0.0042273626   0.73535139    -0.34113432   
    521000   0.93988958     0.0035677221   0.57825645    -0.35118991   
    522000   0.93545096     0.0025721286   0.57664128    -0.34841578   
    523000   1.0658755      0.0040263326   0.70562968    -0.34840271   
    524000   1.096533       0.0044967419   0.70200491    -0.38234436   
    525000   0.94414796     0.0039812657   0.57889758    -0.35475984   
    526000   0.9938777      0.0038146342   0.61781657    -0.36501804   
    527000   1.0199522      0.003096308    0.64358591    -0.36503351   
    528000   0.99191916     0.0039487755   0.61647938    -0.36441846   
    529000   0.94505846     0.003901857    0.58053924    -0.35401857   
    530000   0.97659834     0.0038870648   0.57515507    -0.39059218   
    531000   1.0271077      0.0040201129   0.66026451    -0.35543086   
    532000   0.95328018     0.0034396608   0.61957512    -0.32311306   
    533000   1.0106629      0.0034784971   0.66335101    -0.33608231   
    534000   0.88616273     0.004723095    0.51971448    -0.356602     
    535000   1.0646629      0.0039950689   0.71104506    -0.34178829   
    536000   0.99693428     0.0031631463   0.63726292    -0.34859432   
    537000   1.0249932      0.0040364823   0.67511429    -0.33849015   
    538000   1.012449       0.0037260406   0.68056327    -0.32063632   
    539000   0.98956861     0.0045758975   0.63735147    -0.34122194   
    540000   1.0159932      0.0035273519   0.62601285    -0.37869153   
    541000   1.0531303      0.0031221093   0.66896979    -0.37245908   
    542000   1.0250366      0.0019540143   0.64255148    -0.37109579   
    543000   1.0389197      0.0044083125   0.6435411     -0.3838351    
    544000   1.0302836      0.0043878446   0.63836421    -0.3804718    
    545000   0.99536269     0.0030012359   0.65656701    -0.32773609   
    546000   0.98294305     0.0038594101   0.60741975    -0.36460171   
    547000   0.99765259     0.0034999382   0.60355715    -0.38301041   
    548000   1.0578606      0.0034670084   0.67433994    -0.37176663   
    549000   1.0248884      0.003619665    0.62618455    -0.38731617   
    550000   1.1074587      0.0043587102   0.70700291    -0.38815066   
    551000   0.93856931     0.004304665    0.52457247    -0.40356829   
    552000   0.93962958     0.0042753373   0.54690257    -0.38228668   
    553000   1.081565       0.0041638316   0.67528725    -0.39426032   
    554000   1.0221922      0.0041167603   0.62164882    -0.38918567   
    555000   1.0398625      0.0039177292   0.67241816    -0.35589035   
    556000   1.0227831      0.004494935    0.64115242    -0.37026644   
    557000   1.0583912      0.0041367854   0.70444278    -0.34218856   
    558000   0.99950949     0.0046498874   0.59076837    -0.39763546   
    559000   1.0200492      0.0043896574   0.62699295    -0.38172237   
    560000   1.0489394      0.0038481396   0.66254435    -0.37474018   
    561000   1.0551908      0.0045847972   0.67858965    -0.36487682   
    562000   1.004982       0.003932915    0.58769763    -0.4061179    
    563000   0.97903483     0.0036357337   0.59122758    -0.37692909   
    564000   1.0507715      0.0039249273   0.64892635    -0.39016988   
    565000   0.99621279     0.0039146636   0.57517137    -0.40997239   
    566000   1.0523698      0.0029676628   0.65864517    -0.38203165   
    567000   0.94226568     0.0026527342   0.54543147    -0.38636459   
    568000   0.9356055      0.0035512734   0.55467185    -0.37053804   
    569000   0.95280156     0.0034301892   0.57187213    -0.37034274   
    570000   0.9837866      0.0037022073   0.59881512    -0.37404052   
    571000   1.0156097      0.0030927697   0.64437014    -0.35995497   
    572000   0.9830585      0.0030754391   0.59503092    -0.37710471   
    573000   1.0251275      0.0045652276   0.64243106    -0.37130613   
    574000   1.0335257      0.0035797551   0.64804158    -0.37400054   
    575000   1.0843667      0.0039200116   0.68749569    -0.38482252   
    576000   0.96840845     0.0038971233   0.61439118    -0.34325717   
    577000   1.0069753      0.0043374077   0.64175728    -0.3540294    
    578000   0.96620963     0.0038060777   0.60300272    -0.35247125   
    579000   0.96665663     0.0038337317   0.59636748    -0.35954852   
    580000   0.85880029     0.0031280542   0.49910396    -0.3501541    
    581000   0.98670857     0.003908628    0.60226083    -0.37348432   
    582000   1.0857714      0.0041958791   0.70089459    -0.37281272   
    583000   1.0614834      0.0046101222   0.69488682    -0.35480235   
    584000   0.9539534      0.0054196108   0.57710752    -0.36624639   
    585000   0.87308318     0.0032570775   0.50288213    -0.36050012   
    586000   1.0192851      0.0045319003   0.62830159    -0.37965813   
    587000   1.0766111      0.0041447219   0.69799943    -0.36664936   
    588000   1.0332108      0.0046325741   0.64179266    -0.37993802   
    589000   1.1117845      0.0037428067   0.69844665    -0.40098467   
    590000   0.98766321     0.004753504    0.57120668    -0.40548249   
    591000   1.0876913      0.0055795547   0.65365198    -0.42195386   
    592000   0.84706357     0.0033706786   0.41586666    -0.42178509   
    593000   1.0699256      0.0048623718   0.64735818    -0.41067936   
    594000   0.96846552     0.0047168267   0.54212142    -0.41558338   
    595000   0.9692116      0.0052980259   0.53243149    -0.42601109   
    596000   1.0302887      0.003940389    0.62874449    -0.39009653   
    597000   1.0249149      0.0029431559   0.66051637    -0.35301059   
    598000   1.0244433      0.0039029098   0.63208396    -0.38097667   
    599000   0.9848088      0.0034467237   0.61804705    -0.35581944   
    600000   1.1303803      0.0037784095   0.7616082     -0.35621228   
    601000   0.98549784     0.0026799646   0.64734888    -0.32719899   
    602000   1.010136       0.0043468499   0.67196218    -0.32695009   
    603000   0.95648579     0.003598078    0.59852793    -0.34733024   
    604000   0.90751668     0.0043095223   0.54311626    -0.3543169    
    605000   0.97749612     0.0044089048   0.60553628    -0.36109877   
    606000   1.0343368      0.0042067303   0.68614089    -0.33670325   
    607000   0.98939716     0.0030227149   0.64316922    -0.33523464   
    608000   1.0584         0.0034070521   0.70293899    -0.343701     
    609000   0.96169932     0.0033394643   0.60525412    -0.34575965   
    610000   1.0083722      0.0035741926   0.64016388    -0.35700421   
    611000   0.94336636     0.0034920267   0.57667089    -0.35621362   
    612000   0.9870235      0.0037931982   0.62259079    -0.35346578   
    613000   0.98048079     0.0035548792   0.61529828    -0.35428828   
    614000   1.0360085      0.0044698798   0.68017814    -0.34431915   
    615000   1.0650779      0.0035591198   0.6576827     -0.39556104   
    616000   1.0432318      0.0043209027   0.67187596    -0.35976434   
    617000   0.94530644     0.0032815864   0.55850323    -0.37629981   
    618000   1.0096991      0.002959431    0.65498645    -0.34349373   
    619000   1.0611926      0.0044830845   0.67160611    -0.37779549   
    620000   0.99488178     0.0031799135   0.62496237    -0.35886517   
    621000   0.96749227     0.0044119597   0.58036894    -0.37637341   
    622000   0.90363902     0.0030501336   0.52538446    -0.36821412   
    623000   0.94055442     0.0040920221   0.51926879    -0.41083503   
    624000   1.0184543      0.0034573618   0.61716159    -0.38997657   
    625000   1.0092763      0.0036600223   0.61896983    -0.37909231   
    626000   1.0159156      0.0035728174   0.62700808    -0.37761954   
    627000   1.0478385      0.0046787951   0.63781699    -0.39837887   
    628000   1.0293539      0.0041028952   0.64246412    -0.37545251   
    629000   0.9574178      0.0026606517   0.56632435    -0.38045547   
    630000   1.0243027      0.0045922387   0.62548616    -0.38743535   
    631000   0.95547784     0.0037742785   0.58839121    -0.35647021   
    632000   1.0032394      0.0047131683   0.63181096    -0.36028134   
    633000   0.99545177     0.0036780424   0.61997463    -0.36441656   
    634000   1.061397       0.0041061459   0.65679046    -0.39281321   
    635000   0.99946126     0.0037400985   0.62743001    -0.36092613   
    636000   1.007723       0.0041697013   0.63039155    -0.3661345    
    637000   1.0204165      0.0041306573   0.62929407    -0.37978444   
    638000   1.014627       0.0042279845   0.63424425    -0.36910914   
    639000   1.0253632      0.0036137499   0.65318503    -0.36078522   
    640000   0.95404077     0.0038183288   0.56281389    -0.38062642   
    641000   1.0406705      0.0045793548   0.67915859    -0.34994886   
    642000   0.9294319      0.003404083    0.54345757    -0.3756473    
    643000   0.99425478     0.0042117027   0.64800773    -0.33519978   
    644000   0.95534716     0.0042737326   0.59401361    -0.35071858   
    645000   0.9834967      0.0022285468   0.59416598    -0.37840299   
    646000   0.97324444     0.0032651444   0.56574406    -0.39668655   
    647000   1.0171969      0.0053441955   0.64051902    -0.36537569   
    648000   0.97716757     0.0026221593   0.6411359     -0.32517425   
    649000   0.99456225     0.0034460875   0.64089359    -0.34261797   
    650000   0.98275633     0.0025753476   0.62932762    -0.34250919   
    651000   0.95001428     0.0039576621   0.58814396    -0.3513146    
    652000   1.0361701      0.0041369152   0.67032972    -0.35432736   
    653000   1.0257511      0.0041969587   0.66207286    -0.35228104   
    654000   1.0616905      0.00340859     0.7296628     -0.32023109   
    655000   0.99723933     0.0055801648   0.65981295    -0.32634593   
    656000   0.99895585     0.0044914746   0.6494728     -0.33838355   
    657000   1.0287772      0.00388301     0.717427      -0.29991933   
    658000   0.95023922     0.003665094    0.59935895    -0.34032206   
    659000   1.1316993      0.0041750892   0.76602231    -0.35310259   
    660000   1.0255692      0.0039559341   0.66285451    -0.35131951   
    661000   1.0894011      0.0045919549   0.69601898    -0.38127763   
    662000   1.0062524      0.0034904752   0.6016236     -0.39344817   
    663000   1.0676372      0.0047261352   0.6950347     -0.36073985   
    664000   0.91607729     0.0035247812   0.4959198     -0.40997886   
    665000   0.99405973     0.0038750614   0.56256859    -0.42044604   
    666000   0.99233352     0.0041842407   0.53720717    -0.44410042   
    667000   0.99739315     0.0043393326   0.55917997    -0.42713104   
    668000   0.95572236     0.0036666694   0.51583917    -0.42926404   
    669000   1.1016102      0.0028094227   0.66284317    -0.42652688   
    670000   1.0486221      0.0034059679   0.61501789    -0.42195282   
    671000   0.96675302     0.0041511568   0.53241289    -0.42359844   
    672000   0.95777388     0.0043305899   0.57165354    -0.37547841   
    673000   0.96775564     0.0046371385   0.58673245    -0.37027035   
    674000   1.0479292      0.0039276152   0.68056148    -0.35572407   
    675000   1.0306195      0.0036098506   0.63760303    -0.3815651    
    676000   1.032045       0.004917677    0.66313014    -0.35744774   
    677000   0.95370409     0.0040365683   0.54973439    -0.39337299   
    678000   1.0086767      0.0045209054   0.66859757    -0.32887157   
    679000   0.95886703     0.0036938451   0.549543      -0.39866995   
    680000   0.99396966     0.0040287742   0.59687843    -0.38604712   
    681000   1.0216395      0.0035265819   0.60951905    -0.40076886   
    682000   0.95572486     0.0032437546   0.56498924    -0.38011646   
    683000   1.023703       0.003527717    0.62527328    -0.38705524   
    684000   0.93966195     0.0039550621   0.55315906    -0.3760622    
    685000   1.0512355      0.0038651497   0.67125905    -0.3682961    
    686000   1.0515602      0.0047475379   0.66809948    -0.37177672   
    687000   0.99275657     0.0041281961   0.57707537    -0.40465057   
    688000   1.0063994      0.0047411554   0.57378141    -0.42143576   
    689000   1.079153       0.0048086898   0.68210391    -0.38505852   
    690000   1.017216       0.0027660887   0.62374642    -0.38216717   
    691000   0.96560301     0.0044764102   0.56085095    -0.39402314   
    692000   0.93778665     0.0048712318   0.54435223    -0.38301456   
    693000   0.92723536     0.0030271752   0.51992969    -0.39700306   
    694000   0.9511692      0.0045502341   0.55837937    -0.38222128   
    695000   0.97695117     0.0049079744   0.60817146    -0.3579247    
    696000   1.070244       0.0043397201   0.71429187    -0.34406057   
    697000   1.0061875      0.0042208535   0.64794167    -0.34706599   
    698000   0.95669799     0.0031761883   0.59562816    -0.35043984   
    699000   1.0948968      0.0050618989   0.69930562    -0.38342565   
    700000   1.0018609      0.0025354657   0.61658092    -0.37414817   
    701000   1.016458       0.004582958    0.66298977    -0.34217422   
    702000   0.99909617     0.0036450521   0.64777194    -0.34022317   
    703000   1.0370167      0.0036766732   0.69298427    -0.33251003   
    704000   1.0095627      0.0034519702   0.64020136    -0.35814396   
    705000   0.97341625     0.0039809736   0.60845123    -0.35414928   
    706000   0.94932286     0.0033307733   0.59068433    -0.34809049   
    707000   1.0731601      0.0042164811   0.72517498    -0.3360611    
    708000   0.98874122     0.0037398528   0.63530951    -0.3424457    
    709000   1.0666021      0.0030961346   0.70847407    -0.34627686   
    710000   1.0051651      0.0035384487   0.66773955    -0.32625705   
    711000   0.9739681      0.0045485268   0.60077265    -0.36237358   
    712000   0.98368465     0.0045390146   0.63839466    -0.33436016   
    713000   1.0242776      0.0054780689   0.68311205    -0.32978471   
    714000   1.0219436      0.0043387172   0.66491824    -0.34567046   
    715000   1.0007992      0.003692093    0.6639226     -0.32575662   
    716000   0.9735212      0.0036833774   0.62913266    -0.33357163   
    717000   0.90184534     0.0021231391   0.56558672    -0.32623812   
    718000   0.97623835     0.0036943317   0.61059897    -0.3547923    
    719000   0.97973913     0.0030217337   0.61448488    -0.35436826   
    720000   1.0545525      0.0034381629   0.73009268    -0.31274258   
    721000   1.0756799      0.0034223199   0.74905009    -0.31467777   
    722000   0.94252225     0.0043963006   0.58488491    -0.34716487   
    723000   0.98684216     0.0029547383   0.64477473    -0.33110252   
    724000   0.96465462     0.0047888842   0.56754706    -0.38638918   
    725000   1.0026469      0.0033060103   0.59991788    -0.39158851   
    726000   0.99486062     0.0039407444   0.58733771    -0.3964689    
    727000   1.0347228      0.0034013027   0.60012349    -0.42310243   
    728000   1.0330197      0.0050201575   0.58420972    -0.43733194   
    729000   1.0796608      0.004073052    0.63765189    -0.4300127    
    730000   1.0456801      0.0033646224   0.60770563    -0.42635577   
    731000   1.0388309      0.0043787539   0.60860523    -0.41868306   
    732000   0.90762656     0.0041878716   0.48444067    -0.41310116   
    733000   1.0336774      0.0029026189   0.61264487    -0.40954725   
    734000   0.96793382     0.0044826515   0.57419375    -0.38298525   
    735000   0.99737657     0.00299445     0.58767853    -0.39861607   
    736000   1.094241       0.0042468876   0.67268342    -0.40939936   
    737000   1.0321828      0.0043995939   0.61609645    -0.40461767   
    738000   0.91272338     0.0036645076   0.50404987    -0.39853213   
    739000   1.0836778      0.0046575276   0.62952026    -0.44211667   
    740000   0.98567534     0.0043321824   0.56204351    -0.41267988   
    741000   0.96964344     0.0043835354   0.51390733    -0.44496229   
    742000   0.99698976     0.0055546067   0.55503746    -0.43087464   
    743000   0.98997355     0.0023719934   0.56239935    -0.41657449   
    744000   0.89890928     0.0032313521   0.49390078    -0.39502062   
    745000   0.99013368     0.00331229     0.55793537    -0.42119683   
    746000   1.0248282      0.0028808327   0.61334789    -0.40009332   
    747000   0.95171233     0.0020115212   0.56204313    -0.37909461   
    748000   0.90977454     0.0029883429   0.47926039    -0.42040555   
    749000   1.0557708      0.0048334895   0.64262944    -0.40141057   
    750000   0.99846411     0.0045135802   0.60966228    -0.37770778   
    751000   1.006775       0.0047615056   0.65027816    -0.34531042   
    752000   1.0697755      0.0046779155   0.6804945     -0.37739461   
    753000   1.0635835      0.0038249596   0.69016664    -0.36159926   
    754000   0.97597069     0.0029519497   0.56176491    -0.40336166   
    755000   0.95407726     0.0037445725   0.57411396    -0.36936244   
    756000   0.97336485     0.0036561696   0.60103144    -0.36151824   
    757000   1.0618748      0.0034003716   0.67524235    -0.37483388   
    758000   0.97375499     0.0032460658   0.59101048    -0.37192502   
    759000   0.98847678     0.0047340077   0.60296624    -0.37452746   
    760000   1.0337065      0.0040562592   0.62184372    -0.40037715   
    761000   1.0168205      0.0035734914   0.64543152    -0.36009097   
    762000   0.97762549     0.0043378015   0.58482231    -0.38194067   
    763000   1.065056       0.0048968316   0.66486852    -0.38835349   
    764000   0.95546452     0.0038684507   0.55053753    -0.39431072   
    765000   0.96247907     0.0035875549   0.55084787    -0.40093699   
    766000   1.0583169      0.003891489    0.64005042    -0.40650744   
    767000   0.93597176     0.0032602558   0.56670136    -0.35887071   
    768000   1.0589         0.0043145801   0.69976236    -0.34737207   
    769000   1.0257543      0.0047652449   0.63102561    -0.38333141   
    770000   0.90805798     0.0045603363   0.5117534     -0.38621505   
    771000   1.0063403      0.0044163891   0.60075618    -0.39440254   
    772000   0.98314774     0.0054644328   0.58106913    -0.39115475   
    773000   1.0335297      0.003276116    0.62268881    -0.39935721   
    774000   1.0022209      0.0043660003   0.60804887    -0.38303629   
    775000   1.1286303      0.0038143811   0.73207935    -0.38401062   
    776000   0.95799483     0.0042106492   0.5882395     -0.35911095   
    777000   0.96552201     0.0033467579   0.5817138     -0.37308019   
    778000   0.99273457     0.0034719678   0.60667791    -0.37502628   
    779000   0.9816725      0.0037557742   0.61806055    -0.35270448   
    780000   1.0187581      0.0035451367   0.66355647    -0.34388211   
    781000   0.98217318     0.0028601467   0.58839514    -0.382865     
    782000   1.0519539      0.0041926119   0.6862225     -0.35404299   
    783000   0.94671571     0.0045733937   0.55957391    -0.37662274   
    784000   0.97317042     0.0029176635   0.61214843    -0.35020898   
    785000   0.99559148     0.0036515015   0.61548806    -0.36904129   
    786000   0.94395099     0.0046170739   0.57355512    -0.35990752   
    787000   0.98182079     0.0043201505   0.59617249    -0.37473918   
    788000   1.0470284      0.0038960982   0.66050517    -0.3748896    
    789000   1.0534019      0.0031852185   0.6935337     -0.34816369   
    790000   1.1065983      0.0047949221   0.73727565    -0.35702716   
    791000   1.0550984      0.0032158786   0.67027       -0.37310505   
    792000   1.0098665      0.0023235865   0.62050463    -0.37814113   
    793000   0.9772289      0.0032659391   0.55439424    -0.41197656   
    794000   1.0045665      0.004922415    0.56223157    -0.43117311   
    795000   0.96274887     0.0034758489   0.52716945    -0.42488222   
    796000   1.0605796      0.0050820836   0.62828208    -0.42051333   
    797000   0.97674476     0.0041173731   0.5595013     -0.40639074   
    798000   1.0613296      0.0045609388   0.62241511    -0.42712192   
    799000   1.0199985      0.0040759513   0.59271965    -0.41594548   
    800000   0.98537179     0.0034387829   0.58536347    -0.38905974   
    801000   0.96206695     0.0045357911   0.59218925    -0.35918807   
    802000   1.0260464      0.0029489876   0.63944675    -0.37519917   
    803000   0.94732711     0.0038304499   0.57283606    -0.36396519   
    804000   0.99410115     0.0032043774   0.60242621    -0.38062937   
    805000   1.097618       0.0047487755   0.67494789    -0.41047435   
    806000   1.0079002      0.0040987284   0.59974708    -0.39695418   
    807000   1.0537589      0.0043182732   0.63507637    -0.40697405   
    808000   1.0773234      0.0052717851   0.68126217    -0.38409097   
    809000   1.1034141      0.0036579248   0.72926178    -0.36189214   
    810000   1.0353097      0.0047971393   0.66224864    -0.3615576    
    811000   0.93824435     0.0041688457   0.59105927    -0.33676014   
    812000   0.96254211     0.0052893255   0.64120845    -0.31063874   
    813000   1.0846224      0.0042986205   0.74675737    -0.32581371   
    814000   0.96783529     0.0047438795   0.61896646    -0.33811511   
    815000   1.0739032      0.0033950985   0.7010963     -0.36087469   
    816000   1.0975355      0.0044482333   0.70515694    -0.38018372   
    817000   0.90673817     0.0037254111   0.51772675    -0.37893655   
    818000   0.93807681     0.00345842     0.54728555    -0.38036819   
    819000   1.0421659      0.0037197988   0.63211791    -0.39846835   
    820000   1.0426941      0.0039336121   0.6550431     -0.37606551   
    821000   0.94790097     0.00350915     0.58160155    -0.35576719   
    822000   1.0104907      0.0031826305   0.64284178    -0.35642127   
    823000   1.0579843      0.0050720275   0.70537908    -0.34084989   
    824000   0.90816217     0.0035248382   0.5323592     -0.36571228   
    825000   1.0860453      0.0045411539   0.72401023    -0.34996793   
    826000   1.0222059      0.0023717521   0.66462575    -0.34622229   
    827000   0.9211607      0.0028212865   0.58489825    -0.32602732   
    828000   1.0098477      0.0031956745   0.6889383     -0.30968887   
    829000   1.0063823      0.0034763099   0.66056292    -0.33463738   
    830000   0.95560393     0.0037317035   0.63189181    -0.3130943    
    831000   0.92459369     0.003956034    0.58237705    -0.33194337   
    832000   1.0082169      0.0031507987   0.64188433    -0.35513016   
    833000   1.0312671      0.0036624955   0.67470624    -0.34510229   
    834000   1.0024265      0.0039713933   0.64939372    -0.34189466   
    835000   0.94406141     0.0037089907   0.58340477    -0.35016707   
    836000   1.0007573      0.0033186044   0.66199198    -0.32764581   
    837000   1.0033392      0.0030722312   0.66273329    -0.32945773   
    838000   1.0138648      0.0034645704   0.67798553    -0.32461412   
    839000   1.0507794      0.0041865791   0.72088607    -0.31821804   
    840000   1.0328782      0.0031631675   0.70318386    -0.31821796   
    841000   0.98409439     0.0040272324   0.61236287    -0.36079714   
    842000   1.0423976      0.0045086786   0.7061612     -0.32465425   
    843000   1.0548403      0.0048194438   0.72552042    -0.31759948   
    844000   0.95820326     0.004212863    0.61395064    -0.33360591   
    845000   0.94967507     0.0038048191   0.58678334    -0.35233978   
    846000   1.0187147      0.0049498827   0.64980578    -0.35758991   
    847000   0.95724865     0.0037355701   0.60424965    -0.3423629    
    848000   1.0019305      0.004854223    0.65152122    -0.33927673   
    849000   1.0007056      0.0034810644   0.6533705     -0.33621618   
    850000   1.0225407      0.0040580588   0.70513745    -0.30604167   
    851000   0.9562048      0.0040566717   0.6104132     -0.3351671    
    852000   0.90885218     0.0035562012   0.55566356    -0.34309026   
    853000   0.96969266     0.0029265413   0.60151983    -0.35739848   
    854000   0.99556835     0.0055604152   0.63808358    -0.3464229    
    855000   0.87952616     0.0032952528   0.51327904    -0.35647461   
    856000   1.005044       0.005440929    0.66270335    -0.33117353   
    857000   0.99475566     0.0044445598   0.6287404     -0.35496242   
    858000   0.99034662     0.00297836     0.64892112    -0.33042164   
    859000   1.0323356      0.003955639    0.68095715    -0.33990809   
    860000   0.97312909     0.0047597296   0.64688125    -0.3154353    
    861000   1.0174447      0.0037926041   0.67265577    -0.33348398   
    862000   1.018373       0.0039129601   0.69754574    -0.30951199   
    863000   1.1075872      0.0052189134   0.77231096    -0.32296968   
    864000   0.96375096     0.0035405464   0.62705762    -0.32598499   
    865000   1.0182801      0.0044146861   0.67462956    -0.33233634   
    866000   1.0183737      0.0039420574   0.65189081    -0.35516765   
    867000   0.95047401     0.0038664168   0.56614973    -0.37376346   
    868000   0.97566066     0.003927619    0.60019164    -0.36462835   
    869000   0.99133512     0.0027450814   0.60733929    -0.37298099   
    870000   1.0186357      0.0039569529   0.62998969    -0.37732786   
    871000   1.0368023      0.0041715055   0.62495006    -0.40033222   
    872000   0.97084947     0.0043618341   0.55840356    -0.40165869   
    873000   1.0336861      0.0043170321   0.6340412     -0.38815949   
    874000   1.021876       0.0038391772   0.61989534    -0.39062651   
    875000   0.94953915     0.00407787     0.52965595    -0.40933276   
    876000   0.95219702     0.0038404455   0.57986426    -0.3617528    
    877000   1.0722304      0.004328244    0.69839194    -0.36192477   
    878000   1.0122172      0.0051080501   0.60074508    -0.40022529   
    879000   0.99002986     0.00232695     0.62022119    -0.35880833   
    880000   1.00199        0.0031578102   0.58717821    -0.40367861   
    881000   0.98022913     0.0027614542   0.55723847    -0.41209923   
    882000   0.97995248     0.0046958241   0.57135086    -0.39771326   
    883000   1.0410249      0.0045537477   0.60463806    -0.42481992   
    884000   1.0333383      0.0037829742   0.62960355    -0.39225321   
    885000   1.0383         0.0044929842   0.62331617    -0.40344712   
    886000   0.99980699     0.0030355821   0.60884776    -0.37985027   
    887000   1.0848187      0.0038608233   0.70438522    -0.36837995   
    888000   0.96892691     0.0041375907   0.61471061    -0.34345045   
    889000   1.095415       0.0048056285   0.74284183    -0.34040187   
    890000   0.90167583     0.0030340568   0.56113521    -0.33052199   
    891000   0.9282345      0.0034668023   0.59067241    -0.32724838   
    892000   1.0701361      0.0044172585   0.72700942    -0.33123624   
    893000   0.96467295     0.0035310025   0.61810425    -0.33585011   
    894000   0.96730452     0.0039635034   0.61627246    -0.34028423   
    895000   0.90958797     0.003587032    0.5367908     -0.36269064   
    896000   1.0655969      0.0032897269   0.71544697    -0.33830996   
    897000   0.99621227     0.0041270787   0.63426762    -0.35087563   
    898000   1.0092099      0.0039571291   0.64560304    -0.35239341   
    899000   0.8415366      0.003757147    0.48090007    -0.35128612   
    900000   1.0270972      0.0037845491   0.63555326    -0.38013176   
    901000   0.99033392     0.0038490416   0.60681308    -0.37251713   
    902000   0.92701966     0.0024244354   0.55261415    -0.36410529   
    903000   1.014978       0.0026655565   0.65378727    -0.34991322   
    904000   0.98016161     0.0027540779   0.601435      -0.36783592   
    905000   0.91386032     0.0030726524   0.46922524    -0.43448108   
    906000   1.0162304      0.0035320352   0.60391241    -0.40102658   
    907000   1.0080051      0.0038473766   0.58147867    -0.41532636   
    908000   1.074557       0.0042135711   0.63097568    -0.43164182   
    909000   0.99889141     0.0044329801   0.53116992    -0.45662269   
    910000   0.99648075     0.0048409155   0.5478092     -0.43759955   
    911000   1.0976584      0.0041160289   0.68727301    -0.39818914   
    912000   1.1166055      0.0047778306   0.7027711     -0.40142768   
    913000   1.0452526      0.0037914827   0.62992605    -0.40371264   
    914000   1.0629075      0.0046726112   0.63534803    -0.41574942   
    915000   1.0032292      0.0050640868   0.59346017    -0.39862201   
    916000   1.0197604      0.0040795487   0.59179628    -0.41663349   
    917000   1.0534091      0.0040919788   0.6753917     -0.36631289   
    918000   0.90686799     0.0039065014   0.48952591    -0.40726577   
    919000   0.99656979     0.0044798028   0.58703412    -0.39846267   
    920000   0.98979494     0.0031773604   0.56804695    -0.41075027   
    921000   1.0177819      0.0035916742   0.6001083     -0.40636488   
    922000   0.96298985     0.0027612387   0.58726052    -0.36502945   
    923000   0.97139954     0.0030528976   0.60397988    -0.35662633   
    924000   0.95627926     0.0033216221   0.60485096    -0.34080297   
    925000   0.92762817     0.0034338326   0.54376285    -0.37355834   
    926000   0.95357634     0.0027292126   0.61991132    -0.32306973   
    927000   0.97401671     0.0035930353   0.61657112    -0.34662318   
    928000   1.0078132      0.0040860781   0.6452791     -0.35133617   
    929000   1.0759488      0.0046717913   0.71215332    -0.35184046   
    930000   0.98334547     0.0038481839   0.58472752    -0.38769189   
    931000   1.0062844      0.0039651674   0.61549891    -0.37960452   
    932000   1.0922304      0.0048687143   0.71070839    -0.36938615   
    933000   1.0531903      0.0035602093   0.68676273    -0.35472549   
    934000   0.98992282     0.0035387514   0.59500564    -0.38391804   
    935000   0.97242407     0.0037308615   0.58037862    -0.38124074   
    936000   1.0583898      0.0057550353   0.68221922    -0.3644107    
    937000   1.0544211      0.0041897315   0.66097556    -0.38172976   
    938000   1.065065       0.0054227736   0.65285753    -0.40037337   
    939000   1.0207214      0.0043945185   0.67986242    -0.32951763   
    940000   0.96231733     0.0031270956   0.5912556     -0.36036931   
    941000   1.0062994      0.0032781302   0.60732799    -0.38779028   
    942000   1.0644001      0.0038401295   0.68956328    -0.36301012   
    943000   0.88512096     0.003040307    0.49812551    -0.37716077   
    944000   0.96666463     0.0031505957   0.62827082    -0.32765309   
    945000   1.0203144      0.0036055723   0.64651818    -0.36245938   
    946000   1.1181774      0.0047981886   0.75667649    -0.34907676   
    947000   0.96912077     0.0037097396   0.61621378    -0.34213898   
    948000   1.0784237      0.0052741414   0.72549178    -0.34094948   
    949000   1.055437       0.0038784586   0.70375453    -0.33995534   
    950000   1.0625956      0.0026159063   0.67667956    -0.37410944   
    951000   0.96330309     0.0045928086   0.53926254    -0.41333718   
    952000   1.0462273      0.0029447018   0.64261307    -0.3919895    
    953000   1.0240415      0.0039635287   0.68075315    -0.33191007   
    954000   1.0309416      0.004562197    0.68624877    -0.3332379    
    955000   1.0063805      0.0036510904   0.65956413    -0.33563439   
    956000   0.94022833     0.0040857564   0.55839143    -0.37138992   
    957000   0.96548237     0.0034656462   0.59070442    -0.36405036   
    958000   0.99835395     0.0051616018   0.63297289    -0.35428824   
    959000   1.0280855      0.0036051927   0.64304479    -0.37361749   
    960000   1.0168764      0.0029925732   0.62710476    -0.37847301   
    961000   1.019819       0.0037303154   0.647411      -0.36107666   
    962000   1.0063179      0.0035828905   0.63342433    -0.36171231   
    963000   1.0232788      0.0038671625   0.64097031    -0.37093868   
    964000   1.0216242      0.0051508986   0.64927644    -0.36099636   
    965000   1.0233923      0.0055068404   0.65659307    -0.35542822   
    966000   1.069561       0.005310674    0.66877676    -0.3889002    
    967000   1.0472956      0.0039570389   0.64998843    -0.38567051   
    968000   0.98965533     0.0039663057   0.59579313    -0.38286603   
    969000   1.0404698      0.0041943235   0.6325826     -0.39632645   
    970000   1.1534024      0.0046826675   0.75607475    -0.38451206   
    971000   1.0538393      0.0035541275   0.65813246    -0.38399751   
    972000   0.97266005     0.0039061456   0.59529004    -0.36656267   
    973000   1.0663724      0.004456241    0.68028137    -0.37424241   
    974000   1.0599627      0.0036795782   0.63906029    -0.40912507   
    975000   0.96085219     0.0030237141   0.55425894    -0.39591711   
    976000   1.0444306      0.0025379746   0.64193648    -0.39088933   
    977000   0.94194545     0.0026397066   0.56693992    -0.36453947   
    978000   0.945856       0.0030998248   0.54940311    -0.38594338   
    979000   0.95898563     0.0032699508   0.57344011    -0.37489012   
    980000   0.97054832     0.0042013819   0.56671002    -0.39305443   
    981000   0.86584178     0.0035994612   0.45751987    -0.39870145   
    982000   1.0643074      0.0050952426   0.69149469    -0.36098703   
    983000   1.0098118      0.0033453187   0.64376596    -0.35482572   
    984000   0.99147266     0.0044824116   0.61128111    -0.36917519   
    985000   1.0397241      0.0030634856   0.6249448     -0.40322679   
    986000   1.0404904      0.0029502914   0.64093815    -0.3879913    
    987000   1.0389726      0.0029491038   0.65736159    -0.3700669    
    988000   1.0121629      0.0043323606   0.63776681    -0.36314988   
    989000   0.97775908     0.003786743    0.61573889    -0.3511562    
    990000   1.0307935      0.0050004705   0.64410533    -0.3752349    
    991000   0.90891772     0.0041159267   0.53813904    -0.3606796    
    992000   0.97662762     0.0039691572   0.66368232    -0.30209388   
    993000   1.0141996      0.0039364522   0.65897895    -0.34395181   
    994000   1.0073238      0.0049820661   0.62447462    -0.37165673   
    995000   1.0530715      0.0038600745   0.68078654    -0.36058413   
    996000   1.0079284      0.004190449    0.63767988    -0.35904931   
    997000   1.0042173      0.0042746501   0.62682644    -0.36623285   
    998000   1.0464243      0.0041880914   0.69621344    -0.33858392   
    999000   1.0375707      0.0036958109   0.68171455    -0.34432755   
   1000000   1.0091072      0.0034440651   0.61095995    -0.38693499   
Loop time of 17.2952 on 1 procs for 1000000 steps with 405 atoms

Performance: 49955938.507 tau/day, 57819.373 timesteps/s
99.7% CPU use with 1 MPI tasks x no OpenMP threads

MPI task timing breakdown:
Section |  min time  |  avg time  |  max time  |%varavg| %total
---------------------------------------------------------------
Pair    | 1.2709     | 1.2709     | 1.2709     |   0.0 |  7.35
Bond    | 0.04107    | 0.04107    | 0.04107    |   0.0 |  0.24
Neigh   | 3.4282     | 3.4282     | 3.4282     |   0.0 | 19.82
Comm    | 0.80441    | 0.80441    | 0.80441    |   0.0 |  4.65
Output  | 0.32044    | 0.32044    | 0.32044    |   0.0 |  1.85
Modify  | 10.136     | 10.136     | 10.136     |   0.0 | 58.61
Other   |            | 1.294      |            |       |  7.48

Nlocal:            405 ave         405 max         405 min
Histogram: 1 0 0 0 0 0 0 0 0 0
Nghost:             74 ave          74 max          74 min
Histogram: 1 0 0 0 0 0 0 0 0 0
Neighs:             62 ave          62 max          62 min
Histogram: 1 0 0 0 0 0 0 0 0 0

Total # of neighbors = 62
Ave neighs/atom = 0.15308642
Ave special neighs/atom = 0
Neighbor list builds = 212438
Dangerous builds = 0
Total wall time: 0:00:17
