fix fLANG all langevin 1.0 1.0 1.0 100
neigh_modify exclude molecule/intra all
fix rigidNVE linked_vesicle rigid/nve molecule
  1 rigid bodies with 5 atoms
fix NVE synapsin nve 1.0 1.0 1.0

    ##======================================##
    ## Output
    ##======================================##

thermo 1000
thermo_style custom step temp press etotal epair
thermo_modify flush yes
timestep 0.01

    ##======================================##
    ## Equilibration before output
    ##======================================##


    ##======================================##
    ## Run with output
    ##======================================##

fix enforce_2d all enforce2d
dump 2 all custom 1000 Results_eps_attr8_eps_rep1_eps_rep_weak0_range2_attr_with_repFalse_n_synapsin600_n_vesicles1/Movie_2d_eps_attr8_eps_rep1_eps_rep_weak0_range2_attr_with_repFalse_n_synapsin600_n_vesicles1.xyz id type mol x y z
run 1000000
Generated 0 of 3 mixed pair_coeff terms from geometric mixing rule
Neighbor list info ...
  update every 1 steps, delay 1 steps, check yes
  max neighbors/atom: 2000, page size: 100000
  master list distance cutoff = 11.52462
  ghost atom cutoff = 11.52462
  binsize = 5.7623102, bins = 55 55 1
  1 neighbor lists, perpetual/occasional/extra = 1 0 0
  (1) pair cosine/squared, perpetual
      attributes: half, newton on
      pair build: half/bin/newton
      stencil: half/bin/2d
      bin: standard
Per MPI rank memory allocation (min/avg/max) = 8.538 | 8.538 | 8.538 Mbytes
   Step          Temp          Press          TotEng         E_pair    
         0   0.99605013    -0.012465183    0.98864149     0            
      1000   0.97981398     0.0063786747   0.9593311     -0.013195002  
      2000   1.0328817      0.0067939936   1.0019699     -0.023229199  
      3000   1.0724029      0.0067412449   1.0397317     -0.024694646  
      4000   0.96096918     0.0052915021   0.91690852    -0.036912957  
      5000   0.99312067     0.0064553256   0.94988729    -0.035846535  
      6000   1.0238002      0.0062916902   0.97889332    -0.037291868  
      7000   0.9534134      0.0057907674   0.89759694    -0.048724953  
      8000   0.99882103     0.0069829269   0.94213365    -0.049258134  
      9000   0.96553471     0.0055264351   0.9151066     -0.043246445  
     10000   0.95642912     0.0054769219   0.88879046    -0.060524723  
     11000   1.0264952      0.0065153501   0.94452634    -0.07433374   
     12000   0.99232894     0.0056637372   0.90813244    -0.076815536  
     13000   0.98523737     0.0048127352   0.91533744    -0.062571722  
     14000   0.97100869     0.0063773035   0.88707255    -0.076713756  
     15000   1.0040009      0.0065538184   0.92190026    -0.074632883  
     16000   0.94586135     0.0056934709   0.86776378    -0.071062238  
     17000   1.084367       0.0075475561   0.99405216    -0.08224926   
     18000   0.91560746     0.0057724992   0.82193176    -0.0868654    
     19000   0.92705023     0.0056208172   0.84809347    -0.072061342  
     20000   1.0305892      0.006690769    0.94846772    -0.074455976  
     21000   0.92665988     0.0057412693   0.84615997    -0.073607405  
     22000   0.95884627     0.0055755517   0.87591551    -0.075798845  
     23000   0.98902009     0.006249058    0.9099615     -0.071702245  
     24000   0.9467074      0.005573347    0.85155769    -0.088108088  
     25000   1.0276571      0.0064043111   0.93895811    -0.081055293  
     26000   0.92999904     0.0059892731   0.83222435    -0.090857341  
     27000   1.0388315      0.0062738138   0.93227355    -0.098831101  
     28000   1.0238563      0.0065936853   0.92956229    -0.086678534  
     29000   0.99978147     0.0058230541   0.89445743    -0.09788764   
     30000   1.005243       0.0068456058   0.90127864    -0.096487366  
     31000   1.0212279      0.0061675567   0.92033408    -0.093297934  
     32000   1.0678165      0.0065805715   0.96304265    -0.096831365  
     33000   0.98540756     0.0056907508   0.8820481     -0.096029979  
     34000   0.99764262     0.0071256296   0.89368426    -0.096537875  
     35000   1.0615072      0.0072675361   0.94594924    -0.1076625    
     36000   0.94181129     0.0051992912   0.83119626    -0.10360982   
     37000   1.003151       0.0063418288   0.88684927    -0.10884025   
     38000   1.0010755      0.0056625592   0.88379453    -0.10983493   
     39000   1.00806        0.006007008    0.88659541    -0.11396662   
     40000   1.0317262      0.006020316    0.91433215    -0.10972004   
     41000   1.0562039      0.0058468356   0.93704515    -0.11130273   
     42000   0.90437135     0.0054820403   0.78802016    -0.10962446   
     43000   0.96963247     0.0068118198   0.85100186    -0.11141847   
     44000   1.0388531      0.0056950275   0.91118966    -0.11993645   
     45000   1.0819192      0.0069107022   0.94371061    -0.13016126   
     46000   0.9542039      0.0060494619   0.81396954    -0.13313698   
     47000   0.9697171      0.0061231524   0.82700325    -0.13550108   
     48000   0.96604584     0.0063440687   0.83246533    -0.12639504   
     49000   1.0249557      0.0065702366   0.88151396    -0.13581811   
     50000   0.92025639     0.0053189916   0.77500145    -0.13841005   
     51000   1.0446923      0.0055213114   0.89077867    -0.1461432    
     52000   0.94346903     0.0048980737   0.78981489    -0.1466366    
     53000   1.0311177      0.0062221462   0.8802041     -0.14324414   
     54000   1.0012163      0.0057842668   0.8455581     -0.14821115   
     55000   1.008501       0.0055261172   0.83909506    -0.16190466   
     56000   0.93902935     0.0048293821   0.78614303    -0.1459018    
     57000   1.0266764      0.0059492858   0.86641043    -0.1526295    
     58000   0.94130056     0.0054355774   0.77721851    -0.15708064   
     59000   1.0312242      0.0058853436   0.87019484    -0.1533591    
     60000   0.97096224     0.0051592503   0.80903549    -0.15470472   
     61000   0.97332412     0.0060504476   0.82514001    -0.14094451   
     62000   0.97169135     0.0059818607   0.81395697    -0.15050692   
     63000   0.95363702     0.006793527    0.78938107    -0.15716278   
     64000   1.0209679      0.0067776984   0.85574195    -0.15763199   
     65000   0.99710865     0.0051234479   0.83176735    -0.1579248    
     66000   0.97578422     0.005017144    0.81829135    -0.15023497   
     67000   1.0475992      0.0055403708   0.89380578    -0.14600134   
     68000   0.95052831     0.0057782153   0.80100228    -0.14245599   
     69000   0.97096703     0.0063804434   0.81805414    -0.14569082   
     70000   0.99544041     0.0055637524   0.83167816    -0.15635815   
     71000   0.97700638     0.0062533442   0.80776057    -0.16197882   
     72000   1.0562797      0.007021744    0.87020113    -0.17822195   
     73000   1.0340528      0.0068648249   0.86331162    -0.16304992   
     74000   0.9829489      0.0059305695   0.80623818    -0.16939953   
     75000   0.94802699     0.0060128716   0.76406879    -0.17690675   
     76000   1.0121655      0.0055504643   0.84554587    -0.15909109   
     77000   0.95168765     0.0053301613   0.761796      -0.18281298   
     78000   1.0014519      0.0052404545   0.80892875    -0.18507435   
     79000   0.96825996     0.0055216569   0.78624073    -0.17481729   
     80000   1.0165044      0.0066608807   0.83644962    -0.17249401   
     81000   0.95704404     0.0062632854   0.78246686    -0.16745866   
     82000   0.97602313     0.0057772061   0.79130179    -0.17746166   
     83000   0.98085625     0.0050419436   0.79816337    -0.17539726   
     84000   1.049283       0.0065284829   0.88401604    -0.15746237   
     85000   0.96057618     0.0061513815   0.80594069    -0.14749072   
     86000   0.9301256      0.0052201135   0.77552877    -0.14767854   
     87000   0.95110624     0.0062600385   0.78213688    -0.16189502   
     88000   0.99765806     0.0063106205   0.82582917    -0.16440829   
     89000   1.0141442      0.0053458948   0.8381252     -0.1684758    
     90000   0.97390892     0.0060542468   0.81134718    -0.15531779   
     91000   1.0270384      0.0066830909   0.85608385    -0.16331546   
     92000   1.0321252      0.0078372009   0.86510966    -0.15933853   
     93000   0.9954215      0.0070830445   0.81956985    -0.16844768   
     94000   1.0125711      0.0066774796   0.83739363    -0.16764596   
     95000   1.0404143      0.0068443761   0.85900781    -0.17366786   
     96000   0.97759597     0.0060504982   0.79843905    -0.17188554   
     97000   1.0156221      0.0054330066   0.83400807    -0.17405983   
     98000   1.034543       0.0055268559   0.84292633    -0.18392167   
     99000   0.99485779     0.005993202    0.80975822    -0.1776998    
    100000   1.0237932      0.0060746186   0.82817552    -0.18800273   
    101000   1.0198388      0.0074058978   0.82915487    -0.18309835   
    102000   1.0611219      0.0068302047   0.86898115    -0.18424807   
    103000   0.98120606     0.0053766413   0.79968232    -0.17422551   
    104000   0.97516685     0.0058036634   0.80025327    -0.16766028   
    105000   1.0231796      0.0056109911   0.85372244    -0.16184673   
    106000   1.0047643      0.006059348    0.80566343    -0.19162738   
    107000   0.93138561     0.0063475675   0.72881444    -0.19564351   
    108000   0.9703844      0.0049055405   0.76275987    -0.2004068    
    109000   0.96852992     0.0045217128   0.77595799    -0.18536799   
    110000   1.0151687      0.0065588811   0.81471914    -0.19289875   
    111000   0.97877135     0.0057432879   0.77508741    -0.19640382   
    112000   0.99283605     0.0057699413   0.78303645    -0.20241487   
    113000   1.021593       0.0056561032   0.81858612    -0.19540822   
    114000   0.99047721     0.0052082711   0.7916755     -0.19143453   
    115000   1.0254561      0.0058529461   0.84604304    -0.17178571   
    116000   1.0262625      0.0064607055   0.8345211     -0.18410808   
    117000   1.0315115      0.0060179611   0.82181223    -0.20202685   
    118000   0.99180246     0.0063260435   0.79514183    -0.18928359   
    119000   0.98076396     0.0066011144   0.78444741    -0.18902162   
    120000   1.0245257      0.0069862406   0.81914515    -0.1977601    
    121000   1.0121278      0.0059637396   0.82289114    -0.18170844   
    122000   1.0647738      0.0066944875   0.87920738    -0.17764661   
    123000   1.0305231      0.0056289301   0.83928163    -0.18357639   
    124000   0.98779829     0.0061788076   0.77606841    -0.20438262   
    125000   0.96556447     0.0052068494   0.73379871    -0.22458388   
    126000   1.010683       0.0061566592   0.7832173     -0.21994819   
    127000   1.0132476      0.0066310565   0.76153596    -0.2441751    
    128000   0.96337946     0.0044061489   0.7410776     -0.21513623   
    129000   0.98023096     0.0065571585   0.74328107    -0.22965892   
    130000   0.98610176     0.0055085806   0.75791752    -0.2208496    
    131000   1.0647991      0.0053155407   0.83453828    -0.22234083   
    132000   0.98055724     0.0053420634   0.74841058    -0.22485326   
    133000   0.98808287     0.0060940741   0.75701023    -0.22372326   
    134000   1.0123699      0.0074509517   0.78004286    -0.22479701   
    135000   1.1008507      0.0070743415   0.86177239    -0.23089015   
    136000   0.99267056     0.007046429    0.75875396    -0.22653309   
    137000   0.99847202     0.0068183476   0.77057347    -0.2204719    
    138000   0.98480024     0.006163008    0.74694107    -0.23053421   
    139000   0.97585222     0.0062586777   0.74633609    -0.22225773   
    140000   1.0373807      0.0075086537   0.80457621    -0.22508841   
    141000   0.97348916     0.0060915519   0.74317268    -0.22307565   
    142000   1.0086393      0.0058356202   0.78334848    -0.21778857   
    143000   1.0620116      0.0057621396   0.82540233    -0.22870998   
    144000   1.0033052      0.0055256368   0.77384811    -0.22199446   
    145000   0.98591566     0.0055763248   0.7466801     -0.2319023    
    146000   0.95021049     0.0045455403   0.67663514    -0.26650767   
    147000   0.96791057     0.0062547238   0.69634205    -0.26436919   
    148000   0.91683829     0.0058677116   0.65596579    -0.25405304   
    149000   0.97818231     0.0053408583   0.71604804    -0.25485853   
    150000   0.94597814     0.0063161755   0.7138966     -0.22504533   
    151000   1.0155841      0.00611367     0.77157       -0.23646018   
    152000   1.07764        0.0064508897   0.81263517    -0.25698934   
    153000   0.98486609     0.0059887468   0.72424924    -0.25329139   
    154000   1.0233538      0.0048313167   0.77638731    -0.23935477   
    155000   0.92538986     0.0055296057   0.68375086    -0.23475594   
    156000   1.0290508      0.006880464    0.77088403    -0.25051268   
    157000   1.0352946      0.0065943524   0.78586337    -0.24173065   
    158000   1.0400435      0.0059548861   0.76905185    -0.26325574   
    159000   0.94416029     0.0062681242   0.68056162    -0.25657599   
    160000   1.0145655      0.0062017792   0.75390497    -0.25311418   
    161000   0.98287807     0.0059043901   0.71368208    -0.26188532   
    162000   0.99152421     0.0065010933   0.73541152    -0.24873772   
    163000   0.94045133     0.0048067966   0.69402253    -0.23943371   
    164000   1.0182016      0.00554614     0.75158364    -0.25904452   
    165000   0.95904329     0.0059280304   0.69812588    -0.25378403   
    166000   0.96674774     0.0063082568   0.70471365    -0.2548434    
    167000   0.96844532     0.0055641597   0.69979719    -0.26144481   
    168000   1.0821619      0.0067280758   0.82347376    -0.25063903   
    169000   0.97203172     0.0063402658   0.69648449    -0.26831725   
    170000   0.9724557      0.0058246291   0.70186454    -0.26335801   
    171000   0.9899126      0.0050224668   0.72117748    -0.26137213   
    172000   1.0445288      0.0061589064   0.75742524    -0.27933431   
    173000   1.0079194      0.0068737018   0.74002391    -0.26039859   
    174000   1.0100389      0.0055518687   0.71695299    -0.28557324   
    175000   0.9168012      0.005125453    0.61618912    -0.29379289   
    176000   1.0048182      0.0050478497   0.71677818    -0.28056613   
    177000   1.0294953      0.0057349605   0.74279491    -0.27904303   
    178000   0.97562915     0.0071306934   0.68421365    -0.28415876   
    179000   1.0405808      0.0063487834   0.75552067    -0.27732029   
    180000   0.98278333     0.0060568644   0.70898203    -0.26649134   
    181000   1.0414609      0.006502468    0.74944145    -0.28427305   
    182000   1.0699943      0.0070827089   0.80957191    -0.25246378   
    183000   1.0084849      0.0059647551   0.7425043     -0.25847942   
    184000   1.027283       0.0066940718   0.7372055     -0.28243655   
    185000   1.0479038      0.0061414456   0.74627069    -0.29383883   
    186000   0.9765288      0.0055580402   0.67722208    -0.29204328   
    187000   1.0264652      0.0062296655   0.71672667    -0.30210364   
    188000   1.0308195      0.0066835168   0.72884809    -0.29430412   
    189000   0.99531848     0.0060393542   0.67976402    -0.30815127   
    190000   0.99999849     0.005902764    0.70496282    -0.28759767   
    191000   1.0188429      0.0058186144   0.71120304    -0.30006171   
    192000   1.0260774      0.0058505434   0.73664797    -0.28179748   
    193000   1.0299629      0.004966322    0.74648849    -0.27581353   
    194000   0.98599335     0.0070247863   0.69613872    -0.28252079   
    195000   1.0151352      0.0056408347   0.72348076    -0.28410386   
    196000   1.0133359      0.0066646667   0.72043602    -0.2853627    
    197000   1.0258047      0.0064610091   0.74506301    -0.27311177   
    198000   1.0692717      0.0061042958   0.78597878    -0.27533965   
    199000   1.0495212      0.0051879883   0.76201419    -0.27970069   
    200000   0.94712931     0.0059726577   0.66505315    -0.2750314    
    201000   1.0245782      0.0064944302   0.73456918    -0.28238821   
    202000   0.98266649     0.0056155412   0.69182361    -0.28353378   
    203000   1.0134485      0.0065585872   0.72291066    -0.28299981   
    204000   1.0149496      0.0053965173   0.70898485    -0.29841554   
    205000   1.0449197      0.0060007912   0.73504033    -0.30210729   
    206000   0.91323086     0.0052086949   0.61810806    -0.28833018   
    207000   1.0118758      0.0058696195   0.7014032     -0.30294625   
    208000   1.0103853      0.006517595    0.70345342    -0.29941661   
    209000   1.0367354      0.0064164081   0.71541922    -0.31360494   
    210000   0.99998377     0.0055591625   0.69655545    -0.29599042   
    211000   1.0009974      0.0057559687   0.69572158    -0.29783038   
    212000   1.0199962      0.0054855054   0.71901639    -0.29339304   
    213000   1.0205303      0.0070076926   0.70393645    -0.30900315   
    214000   1.0169245      0.0062168656   0.69391804    -0.31544254   
    215000   1.0287525      0.0059649322   0.72290329    -0.29819733   
    216000   1.0150157      0.0054336448   0.70254544    -0.30492054   
    217000   0.96876839     0.0061521711   0.63989447    -0.3216682    
    218000   1.0494207      0.007088836    0.71383026    -0.32778487   
    219000   1.0693972      0.0052665177   0.72952738    -0.33191564   
    220000   0.92517319     0.0062701888   0.57763867    -0.34065307   
    221000   1.0173334      0.0049382928   0.67790625    -0.33186021   
    222000   0.99536633     0.0052531087   0.65525965    -0.33270312   
    223000   0.98548639     0.0058640211   0.63444154    -0.34371479   
    224000   0.99157622     0.0062669984   0.65940604    -0.32479483   
    225000   1.0217021      0.00588605     0.67469316    -0.33940953   
    226000   1.0456131      0.0058968092   0.69835963    -0.33947622   
    227000   0.9347128      0.005396278    0.57915585    -0.34860454   
    228000   1.0016417      0.0048039664   0.68514566    -0.30904577   
    229000   0.97700591     0.0059399234   0.64303241    -0.32670651   
    230000   1.0533584      0.0051078502   0.72549931    -0.32002416   
    231000   1.0095891      0.0059572788   0.66814828    -0.33393153   
    232000   0.99979191     0.0051898187   0.68115628    -0.31119916   
    233000   1.0595075      0.0064348857   0.7395669     -0.31205999   
    234000   0.99458418     0.0071217158   0.68140212    -0.30578433   
    235000   1.0613359      0.0059471701   0.7234577     -0.32998396   
    236000   1.0568175      0.0065883408   0.69774185    -0.35121501   
    237000   0.98089568     0.0067236561   0.65194597    -0.32165379   
    238000   1.0035826      0.0066376705   0.66034982    -0.33576811   
    239000   1.0104127      0.0057127167   0.66179118    -0.34110609   
    240000   0.97603909     0.005491886    0.63009951    -0.33867979   
    241000   1.0009303      0.0066747482   0.64512424    -0.34836117   
    242000   0.95676518     0.0050987503   0.57935324    -0.3702955    
    243000   1.0437835      0.0054939222   0.66988763    -0.36613216   
    244000   0.98508323     0.0069643032   0.60677967    -0.3709765    
    245000   0.95129075     0.0056477797   0.57520965    -0.36900539   
    246000   1.0286897      0.005633919    0.63790676    -0.38313151   
    247000   0.99390397     0.0058661328   0.62262401    -0.36388728   
    248000   0.98053725     0.0056407901   0.57965526    -0.39358874   
    249000   0.97723786     0.0048599549   0.59090082    -0.37906832   
    250000   1.0352599      0.0069510963   0.67970271    -0.34785692   
    251000   1.0065483      0.0061310038   0.62675724    -0.3723043    
    252000   0.96755298     0.005620872    0.57707761    -0.3832787    
    253000   1.0101967      0.0055263037   0.64506575    -0.35761704   
    254000   1.007191       0.0059941448   0.62150412    -0.37819534   
    255000   1.0681573      0.0063757676   0.72044115    -0.33977121   
    256000   1.0103004      0.0060714414   0.65067157    -0.35211419   
    257000   0.98978451     0.005336034    0.61544136    -0.36698111   
    258000   1.0021793      0.0061378604   0.65299177    -0.34173334   
    259000   1.0304888      0.0063597988   0.66469391    -0.35813015   
    260000   0.92898359     0.0059314826   0.55864508    -0.36342871   
    261000   1.0226625      0.0065779303   0.65377207    -0.36128381   
    262000   0.94835741     0.0048269206   0.57796455    -0.36333896   
    263000   1.0399318      0.0060388841   0.6659635     -0.3662333    
    264000   0.94164563     0.0058701192   0.57095227    -0.36368938   
    265000   1.0050569      0.0064228232   0.63408088    -0.36350036   
    266000   0.98676428     0.0045432668   0.6232061     -0.35621861   
    267000   1.0013914      0.0059505883   0.6292669     -0.36467617   
    268000   1.0396492      0.0066205211   0.68547238    -0.34644393   
    269000   1.0442353      0.0066826682   0.68124243    -0.35522578   
    270000   1.0609378      0.0051419382   0.67242738    -0.38061916   
    271000   1.023155       0.0065478358   0.64293994    -0.37260482   
    272000   1.0064229      0.0063252073   0.6255793     -0.37335783   
    273000   1.0010178      0.0059158604   0.61561243    -0.37795983   
    274000   1.0179509      0.0070610977   0.6278257     -0.38255371   
    275000   0.9282085      0.0053824817   0.53869555    -0.38260892   
    276000   1.0263744      0.0056763706   0.63320123    -0.38553898   
    277000   1.0798088      0.0065741414   0.66982264    -0.40195453   
    278000   0.97418509     0.0054929112   0.56302845    -0.40391063   
    279000   0.96652306     0.0057740475   0.54107699    -0.41825705   
    280000   1.1204185      0.005662165    0.72469576    -0.38738909   
    281000   1.0494546      0.0056889958   0.6446189     -0.39702985   
    282000   1.0677416      0.0062926565   0.65639122    -0.4034085    
    283000   0.98552364     0.0054401668   0.59219876    -0.38599454   
    284000   0.95359363     0.0052012357   0.55378461    -0.39271618   
    285000   0.9828705      0.0051399349   0.55778631    -0.41777358   
    286000   0.91741733     0.0060279423   0.52511092    -0.38548265   
    287000   0.98943954     0.0059643208   0.55046138    -0.4316187    
    288000   0.92634255     0.0056253316   0.4846746     -0.4347778    
    289000   1.0120517      0.0064530833   0.58668032    -0.41784371   
    290000   1.0491744      0.0058934333   0.62878275    -0.41258787   
    291000   0.98657105     0.0047902403   0.57523056    -0.40400236   
    292000   1.0895945      0.00592397     0.67536803    -0.40612202   
    293000   0.98123125     0.0063865693   0.55556052    -0.41837232   
    294000   1.0112705      0.0043428949   0.59127937    -0.41246932   
    295000   0.98760583     0.0061674509   0.57994038    -0.40031963   
    296000   0.96209325     0.0050424233   0.53586682    -0.41907036   
    297000   0.95493515     0.0049871074   0.55714795    -0.39068438   
    298000   1.0635746      0.0067612636   0.65680777    -0.39885599   
    299000   1.0481796      0.0058151727   0.62732328    -0.41305997   
    300000   0.97833743     0.0058590908   0.54731039    -0.42375015   
    301000   1.0502055      0.0049632597   0.644809      -0.39758501   
    302000   1.0463815      0.0068534793   0.62345116    -0.41514738   
    303000   0.91995183     0.0054389822   0.52039531    -0.3927139    
    304000   0.95008657     0.0066062515   0.56120375    -0.38181605   
    305000   0.94630054     0.0046659781   0.55697613    -0.38228581   
    306000   0.90501883     0.0049898047   0.52259874    -0.37568854   
    307000   0.96755547     0.0059438907   0.55588953    -0.40446925   
    308000   0.99147244     0.0059968645   0.58669804    -0.39739981   
    309000   0.97075012     0.0057531901   0.59645607    -0.36707359   
    310000   0.95202505     0.0060479867   0.54469534    -0.40024853   
    311000   0.96672769     0.0050650621   0.56064462    -0.39889253   
    312000   0.98084131     0.0059923733   0.57068813    -0.40285767   
    313000   0.96386292     0.0049034709   0.57676068    -0.379933     
    314000   1.1068383      0.0054351979   0.72876518    -0.3698404    
    315000   1.054924       0.0056956451   0.66548847    -0.38158894   
    316000   1.0283174      0.0055421405   0.63720693    -0.3834618    
    317000   0.98321303     0.0067059458   0.59426265    -0.38163723   
    318000   0.9837189      0.0052676704   0.57562424    -0.40077775   
    319000   0.95619329     0.0056625652   0.56281929    -0.38626182   
    320000   0.98813376     0.0055811665   0.59285461    -0.3879294    
    321000   1.066095       0.006149113    0.65362245    -0.40454292   
    322000   0.97838731     0.0055283553   0.57926271    -0.39184733   
    323000   0.99850345     0.0070696841   0.60642086    -0.38465571   
    324000   0.99780699     0.00532128     0.60057781    -0.38980747   
    325000   0.94994615     0.0058123396   0.54975987    -0.39312056   
    326000   1.0307721      0.0057270182   0.64366273    -0.37944244   
    327000   0.95828364     0.0060532616   0.58427466    -0.36688125   
    328000   0.98047111     0.0058709505   0.59016322    -0.38301513   
    329000   1.0325028      0.0064108687   0.62538814    -0.39943486   
    330000   1.005299       0.005363077    0.6029952     -0.3948264    
    331000   0.99294923     0.0042262049   0.58501837    -0.40054529   
    332000   0.97208386     0.0062590049   0.54482553    -0.42002795   
    333000   1.0744736      0.0066291111   0.66951066    -0.39697102   
    334000   1.0437535      0.0064355815   0.61823703    -0.41775302   
    335000   0.98190631     0.0047521994   0.55104949    -0.42355338   
    336000   0.95610672     0.0051230395   0.54195703    -0.40703816   
    337000   0.9373975      0.005415775    0.50736917    -0.42305595   
    338000   0.9912965      0.0044599148   0.56691094    -0.41701228   
    339000   1.0052569      0.0062753437   0.57391247    -0.42386734   
    340000   1.0304288      0.0064766669   0.6061654     -0.41659902   
    341000   1.0845645      0.0064175313   0.65322847    -0.42326904   
    342000   0.95698828     0.0057453177   0.53044392    -0.41942626   
    343000   0.9786229      0.005297236    0.56091434    -0.41042954   
    344000   0.99130726     0.0062387967   0.55955667    -0.42437722   
    345000   1.004177       0.0065253346   0.55926048    -0.43744745   
    346000   1.095845       0.0062120973   0.65940001    -0.42829412   
    347000   0.97022395     0.0064227593   0.5154856     -0.44752181   
    348000   1.0111587      0.0049409936   0.56206476    -0.44157293   
    349000   1.0002342      0.0053597179   0.56892706    -0.42386738   
    350000   1.0109073      0.0064725225   0.58279807    -0.42059008   
    351000   0.98700097     0.005319885    0.5582434     -0.42141624   
    352000   0.96676979     0.0048939371   0.52223247    -0.43734647   
    353000   0.96638821     0.0055804666   0.52807124    -0.43112895   
    354000   1.0790127      0.0079068912   0.63824922    -0.43273778   
    355000   1.0260476      0.0061835846   0.58066364    -0.4377522    
    356000   1.0353982      0.0063474998   0.59556108    -0.43213578   
    357000   0.96002054     0.0050613376   0.53932585    -0.41355404   
    358000   0.98053715     0.0061387341   0.53925246    -0.43399144   
    359000   0.9830456      0.0051563228   0.55942649    -0.41630719   
    360000   0.99572391     0.0063103752   0.58783819    -0.40047951   
    361000   0.96949904     0.0057490628   0.57589448    -0.38639341   
    362000   0.96246722     0.0046176439   0.54067096    -0.41463741   
    363000   0.96754428     0.0061714318   0.54641506    -0.4139326    
    364000   0.94387137     0.005713887    0.54969992    -0.38715091   
    365000   1.0705511      0.0064033143   0.6508388     -0.41174949   
    366000   1.0222078      0.0062601078   0.61160634    -0.40299831   
    367000   1.0358388      0.0062168683   0.61861396    -0.40952028   
    368000   0.94909505     0.0044266246   0.52850167    -0.41353399   
    369000   1.0425542      0.0056445907   0.61445447    -0.42034515   
    370000   1.0270801      0.0063875985   0.61454877    -0.40489191   
    371000   1.0346738      0.0060793893   0.5933453     -0.4336326    
    372000   0.96398698     0.0060666127   0.53959565    -0.41722118   
    373000   0.99110953     0.0061342331   0.55539309    -0.42834455   
    374000   0.92035403     0.0054936795   0.4880866     -0.42542183   
    375000   1.0207669      0.0059192403   0.59245364    -0.42072077   
    376000   0.95862156     0.0057289177   0.53440404    -0.41708728   
    377000   0.98005777     0.0056802268   0.56589917    -0.40686891   
    378000   1.0462084      0.0062007752   0.62948464    -0.40894199   
    379000   0.98484407     0.0059879514   0.56455379    -0.412965     
    380000   1.0406214      0.0057759996   0.62976316    -0.40311811   
    381000   0.9970151      0.0045507054   0.56289512    -0.42670416   
    382000   1.0154189      0.0056267662   0.58460541    -0.42326079   
    383000   0.97199557     0.0055341003   0.55400195    -0.4107639    
    384000   0.97231211     0.005809658    0.52249661    -0.44258342   
    385000   1.070619       0.0068536181   0.63529287    -0.42736287   
    386000   1.0145397      0.0063037603   0.57565443    -0.43133911   
    387000   0.99388937     0.0044340042   0.5776557     -0.40884111   
    388000   1.0270548      0.0061773869   0.60794298    -0.41147258   
    389000   1.0977427      0.0060934827   0.67574573    -0.41383199   
    390000   0.94626653     0.0054697691   0.54903991    -0.39018828   
    391000   1.0094773      0.0055424043   0.57714339    -0.42482544   
    392000   0.98746284     0.0057968067   0.56788171    -0.41223637   
    393000   1.05647        0.0054591542   0.60064694    -0.44796499   
    394000   0.9360907      0.0071283909   0.50288552    -0.42624253   
    395000   1.0027638      0.0046343021   0.55382927    -0.44147593   
    396000   1.0324659      0.0057764413   0.59480593    -0.42998048   
    397000   1.0008185      0.0063027593   0.55881143    -0.43456298   
    398000   1.0115624      0.0071857658   0.55052458    -0.45351376   
    399000   1.0143801      0.0056706555   0.56918754    -0.43764764   
    400000   1.0513143      0.0066227006   0.5922637     -0.45123087   
    401000   1.0984958      0.0064081897   0.63889016    -0.45143505   
    402000   1.0166459      0.0060076451   0.55139521    -0.45768884   
    403000   0.97126402     0.0058741025   0.54015288    -0.42388686   
    404000   0.92315328     0.0047584765   0.47565562    -0.44063123   
    405000   0.98631798     0.0057825152   0.53506101    -0.44392072   
    406000   0.95185793     0.0060201894   0.50124669    -0.4435313    
    407000   0.98349996     0.0055969761   0.53614149    -0.44004319   
    408000   0.93888227     0.0051573675   0.51277569    -0.41912317   
    409000   1.0813369      0.0059396853   0.63466784    -0.43862608   
    410000   1.0020554      0.0061600516   0.53773818    -0.45686391   
    411000   1.0223572      0.0059359725   0.57363862    -0.4411143    
    412000   1.0152211      0.0054540915   0.54208214    -0.46558775   
    413000   0.95491376     0.0052327082   0.47398971    -0.47382139   
    414000   1.0090604      0.004852664    0.55544748    -0.44610753   
    415000   0.99254684     0.0049990299   0.5390682     -0.44609605   
    416000   0.95433306     0.0059040082   0.47501168    -0.47222303   
    417000   1.0479078      0.0055151101   0.56962523    -0.47048823   
    418000   1.0163468      0.0060356267   0.53632371    -0.47246344   
    419000   0.98694411     0.0056029949   0.51510018    -0.46450302   
    420000   1.0071548      0.0064323294   0.53386732    -0.46579624   
    421000   1.0539709      0.0056807674   0.56319777    -0.48293368   
    422000   1.0415937      0.0064360733   0.54661293    -0.48723335   
    423000   1.0618032      0.0056420323   0.58137347    -0.47253204   
    424000   1.0044846      0.0062386215   0.5159007     -0.48111255   
    425000   0.97087486     0.0054616297   0.50750745    -0.45614603   
    426000   0.99435598     0.0058151407   0.51367265    -0.47328729   
    427000   1.0155657      0.0051142694   0.54047772    -0.46753424   
    428000   0.99180141     0.0059921447   0.52244031    -0.46198406   
    429000   0.99625592     0.0056015725   0.53212833    -0.45671741   
    430000   0.95439639     0.0048232563   0.46425851    -0.48303906   
    431000   0.95647574     0.0068033878   0.45783986    -0.4915216    
    432000   1.0394992      0.0048441077   0.57885115    -0.45291619   
    433000   1.0678571      0.0051380525   0.60317706    -0.45673728   
    434000   1.0163206      0.00622684     0.56673947    -0.44202169   
    435000   0.99934145     0.0053825052   0.52352436    -0.46838398   
    436000   1.0132954      0.0053935545   0.53472395    -0.47103456   
    437000   0.96156114     0.0053755401   0.48671555    -0.46769349   
    438000   0.97963948     0.0063219254   0.50139224    -0.47096067   
    439000   1.0066834      0.0048631566   0.52179703    -0.47739868   
    440000   0.93101085     0.0045883016   0.44720715    -0.47687882   
    441000   0.96421927     0.0042128237   0.4721232     -0.48492419   
    442000   1.0613794      0.0065824755   0.5895578     -0.46392705   
    443000   1.0443874      0.0057669358   0.58349017    -0.4531291    
    444000   0.98918878     0.0056632382   0.52480927    -0.45702191   
    445000   1.073086       0.0071294561   0.60122811    -0.46387627   
    446000   0.9381348      0.0055062644   0.45905629    -0.47210065   
    447000   0.97988043     0.0073744079   0.52042138    -0.45217068   
    448000   1.0077139      0.0055636462   0.54169912    -0.45851941   
    449000   1.0189389      0.0058241773   0.5344421     -0.4769179    
    450000   0.96471077     0.0059211335   0.48758813    -0.4699471    
    451000   0.98307999     0.0042647177   0.49232553    -0.4834423    
    452000   0.95561667     0.0062776171   0.48646727    -0.46204151   
    453000   0.98096339     0.0057916097   0.50407797    -0.469589     
    454000   0.98278083     0.0060886502   0.51476111    -0.46070978   
    455000   0.98300183     0.0057183691   0.49445138    -0.48123886   
    456000   0.98880626     0.0061345846   0.5051325     -0.476319     
    457000   1.0213227      0.0059815792   0.54725123    -0.4664749    
    458000   0.95285417     0.0058269936   0.46759318    -0.47817364   
    459000   0.99466645     0.0049383989   0.50794589    -0.47932222   
    460000   1.0286508      0.0058616846   0.5510467     -0.46995302   
    461000   1.0947231      0.0064597568   0.6336574     -0.45292313   
    462000   1.0930084      0.0058982115   0.62404676    -0.46083179   
    463000   1.025091       0.0059389776   0.53759443    -0.47987196   
    464000   1.0194475      0.0051561489   0.55331729    -0.4585475    
    465000   1.0403643      0.0047758846   0.55971839    -0.47290763   
    466000   0.95811506     0.0054199339   0.46958574    -0.48140285   
    467000   0.92795486     0.0061813562   0.4387377     -0.48231501   
    468000   1.0002501      0.0060372637   0.52443765    -0.46837261   
    469000   0.99352164     0.0054967139   0.50715911    -0.4789727    
    470000   0.98104921     0.0064036688   0.48367274    -0.49007941   
    471000   1.0177426      0.006473272    0.53513573    -0.47503687   
    472000   1.0286111      0.005230013    0.50360325    -0.51735699   
    473000   1.0002566      0.0056582571   0.51859898    -0.47421766   
    474000   1.0577282      0.0053690232   0.5844039     -0.46545688   
    475000   1.0545749      0.0055492137   0.55871792    -0.488013     
    476000   1.0197733      0.0065576291   0.52697163    -0.48521654   
    477000   1.0427262      0.0058414119   0.56535303    -0.46961733   
    478000   1.0019378      0.0059566063   0.49448915    -0.4999962    
    479000   0.90916625     0.0048799513   0.40708173    -0.49532213   
    480000   1.0015709      0.00497875     0.50945071    -0.48467047   
    481000   1.0156042      0.0062406354   0.52194698    -0.48610311   
    482000   0.98402166     0.0052153158   0.47403915    -0.50266335   
    483000   0.99141716     0.0052983364   0.48855339    -0.49548959   
    484000   0.93804231     0.0057082207   0.42933964    -0.50172549   
    485000   1.0086051      0.0066813319   0.5266706     -0.47443252   
    486000   0.98779868     0.006857871    0.50368588    -0.47676554   
    487000   0.91767747     0.0057928848   0.41872417    -0.4921276    
    488000   0.99274621     0.0053889186   0.51843628    -0.46692587   
    489000   0.99038878     0.0053635072   0.54242542    -0.44059683   
    490000   0.96743863     0.0046457362   0.47676031    -0.4834825    
    491000   1.0271889      0.0064049362   0.55093505    -0.46861357   
    492000   0.94748035     0.0033827017   0.45958281    -0.48085017   
    493000   1.0345816      0.0071958941   0.51650828    -0.51037808   
    494000   0.94689968     0.0052385337   0.41986361    -0.51999302   
    495000   0.99916371     0.0060698582   0.47262789    -0.51910403   
    496000   1.0027276      0.0047452422   0.47545993    -0.51980937   
    497000   0.93177443     0.0048565755   0.3967042     -0.52813967   
    498000   1.0338509      0.0076634144   0.49559906    -0.53056203   
    499000   0.99055615     0.0054759971   0.47521885    -0.50796953   
    500000   1.0269245      0.0064560941   0.52525164    -0.49403457   
    501000   1.0626109      0.0063026282   0.57345012    -0.48125703   
    502000   1.0189662      0.0061012058   0.52464792    -0.48673921   
    503000   0.97525294     0.0049314161   0.46858878    -0.49941021   
    504000   0.94662178     0.0050743759   0.4273897     -0.51219109   
    505000   1.0115034      0.0059090328   0.51369802    -0.49028181   
    506000   0.92463529     0.0049756382   0.42042434    -0.4973335    
    507000   1.0202014      0.0059379994   0.50500573    -0.50760737   
    508000   0.97911872     0.0064269989   0.4645273     -0.50730872   
    509000   0.96269269     0.0058342461   0.43714593    -0.51838624   
    510000   1.011202       0.0054657019   0.50452326    -0.49915743   
    511000   0.99717358     0.0060300179   0.468883      -0.52087359   
    512000   1.0028221      0.0062118819   0.49866026    -0.49670281   
    513000   0.97515299     0.0057417361   0.43844982    -0.52944996   
    514000   1.029685       0.0060492731   0.53433395    -0.48769226   
    515000   1.1248121      0.0057326432   0.60733772    -0.50910799   
    516000   1.0366583      0.0057681398   0.4996382     -0.5293094    
    517000   1.0346724      0.0059950633   0.56427305    -0.4627034    
    518000   0.96677481     0.0050800332   0.44750224    -0.51208168   
    519000   1.0484113      0.0045570192   0.55388369    -0.48672948   
    520000   1.0054719      0.0057305054   0.52907824    -0.46891492   
    521000   0.98699903     0.0049944489   0.50181836    -0.47783935   
    522000   1.0405703      0.006104507    0.53778825    -0.49504226   
    523000   0.99745025     0.006039609    0.4992034     -0.4908278    
    524000   0.97154357     0.0057588804   0.50360296    -0.46071426   
    525000   0.97768401     0.0061455246   0.47763264    -0.49277934   
    526000   1.0166977      0.0055031381   0.54715625    -0.46197925   
    527000   0.98042683     0.0060850677   0.48375869    -0.48937571   
    528000   0.95645853     0.0059143759   0.48984836    -0.45949601   
    529000   0.98471018     0.0047886199   0.4988427     -0.47854318   
    530000   0.9898921      0.0048311342   0.51550031    -0.46702896   
    531000   1.0350816      0.0056810637   0.54359394    -0.48378872   
    532000   0.9812782      0.0045982719   0.48558789    -0.48839155   
    533000   0.96395008     0.0050519696   0.48621339    -0.47056682   
    534000   0.94901522     0.0057738564   0.4615855     -0.48037094   
    535000   0.99029476     0.0061169667   0.52658887    -0.45634006   
    536000   0.94278144     0.0044996737   0.45823206    -0.47753695   
    537000   1.0122096      0.0046833424   0.5332532     -0.47142752   
    538000   1.065193       0.0070544417   0.59388535    -0.4633847    
    539000   1.0048216      0.0067495631   0.51617761    -0.48117016   
    540000   0.98208141     0.0058891962   0.51901345    -0.45576323   
    541000   0.98964606     0.0047174277   0.54667969    -0.43560536   
    542000   0.96279563     0.0053168159   0.47963827    -0.47599607   
    543000   1.0611088      0.0057951065   0.58203715    -0.47117915   
    544000   1.0200127      0.0059270186   0.5233788     -0.489047     
    545000   1.0159216      0.0063051823   0.52549721    -0.48286793   
    546000   0.94722298     0.0055671251   0.44751733    -0.49266019   
    547000   1.1169525      0.0063938544   0.60500096    -0.50364363   
    548000   1.0762107      0.006533237    0.61655979    -0.45164607   
    549000   0.9665154      0.0063273244   0.46861391    -0.49071253   
    550000   1.0460677      0.0061570247   0.5521627     -0.48612433   
    551000   1.0058797      0.0066969489   0.50964488    -0.48875308   
    552000   0.97286293     0.006473618    0.45727615    -0.50835061   
    553000   0.96801253     0.0057866127   0.44241562    -0.51839681   
    554000   0.97891789     0.0046207129   0.48233603    -0.48930065   
    555000   1.0641455      0.0058208526   0.57999051    -0.47623984   
    556000   0.96913241     0.0046479263   0.49638707    -0.46553691   
    557000   1.0015251      0.0058325877   0.50123913    -0.49283659   
    558000   0.95767076     0.0049315464   0.45291219    -0.4976354    
    559000   0.99921476     0.0055387856   0.47559634    -0.51618624   
    560000   1.0294297      0.0048484403   0.49634746    -0.52542529   
    561000   0.9527462      0.0055771863   0.41246573    -0.53319393   
    562000   0.93883762     0.0053675896   0.39859794    -0.5332566    
    563000   1.0193458      0.0048867801   0.4934766     -0.51828728   
    564000   0.98208067     0.0049418474   0.46012031    -0.51465563   
    565000   1.0492668      0.0062871635   0.53603673    -0.5054256    
    566000   1.0050088      0.0054483014   0.4894886     -0.50804489   
    567000   1.0421019      0.0060627063   0.50400373    -0.53034701   
    568000   1.0476453      0.0067094172   0.51129156    -0.52856135   
    569000   0.9730605      0.0055709011   0.45250371    -0.51331914   
    570000   0.95539369     0.0040427119   0.38888837    -0.55939909   
    571000   0.96943262     0.0055432215   0.44086723    -0.52135473   
    572000   1.0044845      0.0064615824   0.44764973    -0.54936342   
    573000   1.0134769      0.0055056011   0.46317647    -0.54276213   
    574000   1.0633102      0.0060281095   0.51335232    -0.54204895   
    575000   0.99567072     0.0061628508   0.43787948    -0.55038543   
    576000   1.0348102      0.0060413203   0.46831144    -0.55880185   
    577000   0.94613283     0.0044480546   0.36557253    -0.57352294   
    578000   1.0156894      0.0051628398   0.48421687    -0.52391777   
    579000   1.0004419      0.0058499464   0.49421237    -0.49878825   
    580000   1.0327527      0.0055267206   0.47460146    -0.55046961   
    581000   0.97599729     0.0065158937   0.42031154    -0.54842626   
    582000   1.0316227      0.0048420296   0.5168747     -0.50707481   
    583000   0.98377525     0.0061956374   0.45462179    -0.52183612   
    584000   0.94976551     0.0051069137   0.4189611     -0.52374004   
    585000   1.0723021      0.0063470754   0.56024906    -0.5040772    
    586000   1.0214111      0.0055277509   0.48902445    -0.52478934   
    587000   0.92523423     0.0063364708   0.41272992    -0.50562241   
    588000   0.94849904     0.0052531903   0.41888057    -0.52256352   
    589000   0.95049305     0.0061058679   0.45638699    -0.48703628   
    590000   1.0524421      0.0059364391   0.55172363    -0.4928904    
    591000   1.0242292      0.0043627228   0.50089373    -0.51571724   
    592000   0.99077108     0.0058992525   0.46607149    -0.51733022   
    593000   0.96974981     0.0054745564   0.44331837    -0.51921843   
    594000   1.0069906      0.0056868987   0.48327213    -0.51622847   
    595000   1.0159376      0.0059420491   0.47913232    -0.52924867   
    596000   1.0638837      0.0059569814   0.52432856    -0.53164191   
    597000   1.0107446      0.0055912608   0.4906767     -0.51254995   
    598000   0.98042535     0.0050585189   0.460827      -0.51230593   
    599000   1.0145605      0.005535468    0.5016754     -0.5053388    
    600000   1.0479369      0.0060582256   0.5330731     -0.50706921   
    601000   1.0046096      0.0062048586   0.46683032    -0.53030697   
    602000   1.0153765      0.006206949    0.49699288    -0.51083122   
    603000   1.0305642      0.0056845553   0.53242395    -0.49047489   
    604000   0.96051137     0.0050188825   0.44857308    -0.50479399   
    605000   0.98369739     0.0057650482   0.45097171    -0.52540892   
    606000   1.0583518      0.0053112049   0.53940126    -0.51107855   
    607000   0.96728587     0.0049458509   0.4427058     -0.51738539   
    608000   1.0164183      0.0054706935   0.48290096    -0.52595723   
    609000   0.97729599     0.0063228263   0.4462181     -0.52380875   
    610000   0.96797903     0.0052908776   0.42241672    -0.53836247   
    611000   1.0155248      0.0066164145   0.51512512    -0.49284624   
    612000   0.97722315     0.0049357414   0.48503081    -0.48492374   
    613000   1.0171508      0.0067104272   0.48271061    -0.52687464   
    614000   1.0123284      0.0060353676   0.49367628    -0.51112239   
    615000   0.99660585     0.005010886    0.46524738    -0.5239457    
    616000   0.95358666     0.0043815415   0.40882112    -0.53767275   
    617000   0.97069769     0.0054614864   0.4420679     -0.52140973   
    618000   0.91060708     0.0055379375   0.37662494    -0.52720903   
    619000   0.9531535      0.0046903814   0.43550293    -0.510561     
    620000   0.99050018     0.0062384252   0.48504651    -0.49808631   
    621000   1.0269398      0.0063651425   0.50783517    -0.51146624   
    622000   0.98853541     0.0059233755   0.4767751     -0.50440756   
    623000   1.0198563      0.006717373    0.52209622    -0.49017432   
    624000   0.96487019     0.0051026853   0.48310262    -0.47459085   
    625000   0.93337306     0.0052261049   0.43504898    -0.49138163   
    626000   0.99685569     0.0066354135   0.49217817    -0.49726289   
    627000   1.0821078      0.0057226486   0.58184035    -0.49221871   
    628000   0.97955486     0.0055838398   0.45622917    -0.51603975   
    629000   0.97473653     0.0064452879   0.46906413    -0.4984223    
    630000   1.0200774      0.0057653289   0.54621425    -0.46627584   
    631000   0.98478412     0.0057301542   0.44317441    -0.53428487   
    632000   0.95411963     0.0061519931   0.43229744    -0.51472543   
    633000   0.99181662     0.0070031598   0.48402723    -0.50041224   
    634000   1.064009       0.0061914656   0.57326321    -0.48283162   
    635000   1.0107123      0.005552766    0.50796405    -0.49523052   
    636000   0.98586468     0.0050901441   0.49458319    -0.48394861   
    637000   0.95333195     0.0053683637   0.44978791    -0.49645315   
    638000   1.0041061      0.005531473    0.54320323    -0.45343434   
    639000   1.0508591      0.0059612015   0.54821412    -0.4948287    
    640000   0.96318679     0.0064882945   0.44413964    -0.51188295   
    641000   0.96859876     0.0052501256   0.43658028    -0.52481403   
    642000   0.99701088     0.0042464546   0.48883163    -0.50076347   
    643000   0.98018767     0.0061758545   0.46162704    -0.51126998   
    644000   1.0219273      0.0056696682   0.49529945    -0.51902676   
    645000   0.99875905     0.0050704758   0.49833784    -0.49299242   
    646000   1.0261848      0.0058723589   0.52401377    -0.49453824   
    647000   0.9907186      0.0055888359   0.48430716    -0.49904246   
    648000   0.9884194      0.0052162125   0.51464997    -0.46641755   
    649000   1.0054647      0.0045934521   0.49665684    -0.5013292    
    650000   0.99342013     0.0058812982   0.48252338    -0.50350768   
    651000   1.006667       0.0060621905   0.50313606    -0.4960433    
    652000   1.0268426      0.005761957    0.51163808    -0.50756687   
    653000   1.004429       0.0066447689   0.51700039    -0.47995761   
    654000   1.0150213      0.005033894    0.51478827    -0.4926833    
    655000   0.91728667     0.0068635476   0.38700974    -0.52345414   
    656000   0.96482296     0.0052193787   0.46325711    -0.49438948   
    657000   0.96933957     0.0052617243   0.47193367    -0.49019594   
    658000   1.0469363      0.0066291374   0.53768941    -0.50145976   
    659000   1.001287       0.0059499235   0.4684163     -0.52542307   
    660000   0.99854953     0.0042113384   0.49375415    -0.49736815   
    661000   1.045048       0.0057863746   0.52876445    -0.50851047   
    662000   0.93907163     0.0053096668   0.4023871     -0.5296997    
    663000   1.0306342      0.0054362834   0.51067621    -0.51229215   
    664000   0.98822781     0.0052183375   0.48216261    -0.49871475   
    665000   1.0280264      0.005650451    0.54235288    -0.47802705   
    666000   0.95757555     0.0057949967   0.46795436    -0.48249873   
    667000   1.0481997      0.0058805956   0.54806344    -0.49233978   
    668000   0.94495632     0.006303218    0.44551894    -0.49240878   
    669000   1.0313632      0.0051868617   0.54225763    -0.48143429   
    670000   1.0097598      0.0067045484   0.50592538    -0.49632383   
    671000   0.98612077     0.006563249    0.48898252    -0.48980347   
    672000   1.0428724      0.0061031398   0.56009631    -0.47501918   
    673000   1.0838335      0.0065093831   0.61111948    -0.46465245   
    674000   1.0052346      0.0063251175   0.50438496    -0.49337269   
    675000   0.99682234     0.0053128333   0.4964095     -0.49299846   
    676000   0.9571733      0.0054044089   0.4478065     -0.50224732   
    677000   1.0078897      0.0061052544   0.51853334    -0.48185968   
    678000   1.0473944      0.0056433386   0.59544838    -0.44415544   
    679000   1.0128375      0.0055865132   0.54076184    -0.46454219   
    680000   0.98793908     0.0052743382   0.51965511    -0.46093566   
    681000   0.96740237     0.0052480469   0.50106423    -0.45914258   
    682000   0.89309938     0.0045088894   0.43351368    -0.45294282   
    683000   1.0080918      0.0042916936   0.51224398    -0.48834957   
    684000   1.0458591      0.0056312321   0.56300476    -0.4750752    
    685000   0.96598955     0.0054176672   0.51298861    -0.44581589   
    686000   0.94142307     0.0063517904   0.44847537    -0.48594538   
    687000   0.97650306     0.0052456663   0.48505184    -0.48418797   
    688000   1.0240994      0.0053453863   0.53619664    -0.48028545   
    689000   1.0052398      0.00627006     0.53715271    -0.46061011   
    690000   1.009489       0.0056088504   0.50429158    -0.49768882   
    691000   0.9781843      0.0043739331   0.46809203    -0.50281652   
    692000   1.0155114      0.0055853917   0.51841956    -0.48953842   
    693000   1.018256       0.0051279235   0.52318567    -0.48749654   
    694000   0.98189505     0.005161429    0.50007222    -0.47451948   
    695000   0.93323805     0.0061786236   0.4535517     -0.47274491   
    696000   1.0920363      0.0064248242   0.60726682    -0.47664694   
    697000   0.94394378     0.0055099622   0.46793465    -0.46898806   
    698000   0.96769623     0.006408449    0.47534694    -0.48515155   
    699000   1.0086782      0.0057025906   0.50813878    -0.49303684   
    700000   1.0049799      0.0051371604   0.50390608    -0.49359874   
    701000   1.034051       0.0057250544   0.52249257    -0.50386717   
    702000   1.0464434      0.0046056062   0.54497461    -0.4936853    
    703000   1.0547817      0.0056917459   0.54922889    -0.49770732   
    704000   1.014177       0.0046191659   0.51096593    -0.49566763   
    705000   1.0438783      0.0063220237   0.51706598    -0.51904795   
    706000   1.0086117      0.0047833691   0.48781654    -0.51329306   
    707000   1.1156796      0.007228891    0.59115874    -0.51622237   
    708000   0.96401092     0.0046716366   0.4405526     -0.516288     
    709000   0.98199059     0.0054468354   0.48327199    -0.49141453   
    710000   1.0288808      0.0064202685   0.53959797    -0.48162998   
    711000   1.0959181      0.0066766574   0.60946064    -0.47830598   
    712000   1.011919       0.0059438113   0.49196727    -0.51242502   
    713000   1.088267       0.0066478517   0.59440524    -0.4857672    
    714000   1.0424794      0.0054807038   0.53327897    -0.50144644   
    715000   0.99996428     0.0052292115   0.48721573    -0.50531079   
    716000   0.99717061     0.0069813186   0.48910925    -0.50064439   
    717000   1.0193673      0.005358449    0.51077157    -0.50101367   
    718000   1.0289802      0.0059602394   0.52874899    -0.49257764   
    719000   1.0046164      0.0051919887   0.49668181    -0.50046221   
    720000   1.0259898      0.0056829371   0.48886824    -0.52949025   
    721000   0.95069205     0.0046743445   0.42624737    -0.51737342   
    722000   1.0164085      0.0070218489   0.52516003    -0.4836884    
    723000   0.94221487     0.0048933396   0.41384369    -0.52136297   
    724000   0.99451362     0.0054645158   0.46177751    -0.5253389    
    725000   0.96070804     0.0058272864   0.43642971    -0.51713257   
    726000   0.98689029     0.0054549891   0.44234965    -0.53720013   
    727000   1.0100767      0.0053240847   0.49488283    -0.50768094   
    728000   0.97738196     0.0061488976   0.45658991    -0.51352226   
    729000   1.0486759      0.0050566747   0.53526922    -0.50560658   
    730000   0.96534643     0.0052491432   0.43220411    -0.52596207   
    731000   1.0217533      0.0056934828   0.49828729    -0.51586624   
    732000   1.0005669      0.0076554223   0.47193074    -0.52119392   
    733000   0.99542888     0.0064480501   0.44484006    -0.54318481   
    734000   1.0102024      0.0055976921   0.47312095    -0.52956757   
    735000   1.0326077      0.0048082789   0.49434222    -0.5305849    
    736000   0.97733285     0.0053163011   0.44886304    -0.52120039   
    737000   0.97039299     0.0064654787   0.45014578    -0.51302942   
    738000   1.0285419      0.0063089872   0.49802458    -0.52286704   
    739000   1.0068991      0.006000784    0.50380865    -0.4956011    
    740000   0.92900237     0.0058896461   0.41487732    -0.50721512   
    741000   0.99743363     0.005789521    0.4327817     -0.557233     
    742000   0.96123771     0.0057290372   0.4133844     -0.54070361   
    743000   1.0146885      0.0061271346   0.47987353    -0.52726766   
    744000   0.97469899     0.0046617605   0.43519879    -0.53225037   
    745000   0.99220663     0.0043230772   0.46933796    -0.51548862   
    746000   1.0027944      0.0056650917   0.46163262    -0.53370294   
    747000   0.95984037     0.005158486    0.40612071    -0.54658035   
    748000   0.95013314     0.0052902465   0.39959739    -0.54346865   
    749000   1.0412827      0.0051709831   0.50208363    -0.53145402   
    750000   0.99218009     0.0061292216   0.4550834     -0.52971684   
    751000   1.0133088      0.0052860268   0.48098445    -0.52478732   
    752000   1.0567569      0.0061366716   0.55988246    -0.48901431   
    753000   1.0435578      0.0059436333   0.51977142    -0.51602442   
    754000   1.0306746      0.0042972822   0.56294224    -0.46006615   
    755000   0.99095222     0.0050819166   0.51724995    -0.46633155   
    756000   0.97164253     0.0053442708   0.47301905    -0.49139638   
    757000   1.0340753      0.0054111574   0.54201353    -0.48437032   
    758000   0.93257888     0.0060028923   0.43479932    -0.49084302   
    759000   0.93086764     0.0040481517   0.42073508    -0.50320875   
    760000   0.96242519     0.0037851398   0.45440839    -0.50085827   
    761000   1.0748522      0.0067227194   0.54711194    -0.51974553   
    762000   1.0335472      0.0054328382   0.53466968    -0.49118994   
    763000   1.0590209      0.0064486104   0.55357783    -0.49756608   
    764000   1.0719581      0.006010688    0.57975041    -0.48423442   
    765000   1.0149679      0.0050618894   0.52752021    -0.47989835   
    766000   0.93589453     0.0046597403   0.45304319    -0.47589014   
    767000   1.0373762      0.0048665034   0.55511853    -0.47454168   
    768000   1.0290208      0.0058646987   0.56750548    -0.45386147   
    769000   0.99463901     0.0062149009   0.52013219    -0.46710868   
    770000   1.0300865      0.0067621695   0.52831601    -0.49410873   
    771000   0.94648911     0.0059044827   0.44427459    -0.49517452   
    772000   1.0225134      0.0058316229   0.54300298    -0.4719049    
    773000   0.99211807     0.0057575276   0.48755008    -0.4971886    
    774000   0.87336831     0.0042786029   0.40036571    -0.46650647   
    775000   0.99054445     0.0059248424   0.49402916    -0.48914761   
    776000   1.0354657      0.0063663833   0.5326174     -0.49514648   
    777000   0.9789491      0.0061113936   0.49095959    -0.48070806   
    778000   0.95011729     0.006256542    0.46762504    -0.47542526   
    779000   0.96901358     0.0045365457   0.50727894    -0.4545271    
    780000   1.0859355      0.0059482415   0.61322006    -0.46463819   
    781000   1.0398775      0.0049210194   0.54593427    -0.48620863   
    782000   1.0089642      0.0054588793   0.51772887    -0.48373067   
    783000   1.0338955      0.0057153836   0.51564818    -0.51055722   
    784000   0.99414454     0.0054872021   0.50361628    -0.4831338    
    785000   0.97902918     0.0055603473   0.49262514    -0.47912201   
    786000   0.99638257     0.0056969355   0.50404901    -0.48492245   
    787000   1.055166       0.0067594456   0.55305541    -0.49426227   
    788000   1.0222366      0.0058761264   0.5171549     -0.49747828   
    789000   0.94789784     0.0048876846   0.41872959    -0.52211777   
    790000   0.94305661     0.0056750491   0.4398192     -0.49622293   
    791000   1.0293449      0.0052083416   0.50707921    -0.51460945   
    792000   1.0649602      0.0072980167   0.55227357    -0.50476542   
    793000   0.95206384     0.0042499004   0.44065198    -0.5043304    
    794000   0.98750306     0.0055758601   0.47824863    -0.50190937   
    795000   1.0050699      0.0058470508   0.50762622    -0.48996792   
    796000   0.95261772     0.0053042227   0.45620735    -0.48932478   
    797000   1.0122587      0.0057723314   0.52473027    -0.47999921   
    798000   1.0146627      0.0057088629   0.54140856    -0.46570706   
    799000   1.0253382      0.0054898308   0.53099989    -0.48671182   
    800000   0.9947077      0.005072231    0.55948384    -0.4278252    
    801000   1.037594       0.0060219256   0.58651758    -0.44335877   
    802000   1.0868848      0.006539049    0.62865185    -0.45014865   
    803000   1.0585053      0.0058296332   0.60234778    -0.44828435   
    804000   1.007467       0.0054293452   0.51931671    -0.48065672   
    805000   1.0096091      0.006221025    0.544097      -0.45800257   
    806000   0.9653194      0.0062572938   0.50031656    -0.45782277   
    807000   1.0144692      0.0055492883   0.53522214    -0.47170144   
    808000   0.90546988     0.0044667827   0.42984105    -0.46889393   
    809000   1.0186035      0.0055063085   0.55076399    -0.46026315   
    810000   0.99664731     0.0056477787   0.51929815    -0.46993608   
    811000   1.0020782      0.0048871619   0.51799401    -0.47663068   
    812000   1.054366       0.0060453868   0.59759178    -0.44893184   
    813000   1.0240867      0.0055222164   0.55994365    -0.45652586   
    814000   1.017658       0.0054771214   0.57066549    -0.4394232    
    815000   1.0069671      0.0057510271   0.51667585    -0.48280136   
    816000   0.99967683     0.0064647978   0.52983649    -0.46240473   
    817000   0.95075989     0.0055197493   0.48151297    -0.46217515   
    818000   0.96600179     0.0062271188   0.49900871    -0.45980795   
    819000   1.054131       0.0055033623   0.58953167    -0.45675872   
    820000   0.94260337     0.0065198377   0.46881046    -0.46678181   
    821000   0.96578135     0.0050665976   0.50788088    -0.45071697   
    822000   1.0101772      0.0061065733   0.54418837    -0.45847512   
    823000   1.0369584      0.0043156952   0.56863864    -0.46060685   
    824000   1.0763744      0.005073045    0.59147284    -0.4768955    
    825000   1.0102811      0.0052663993   0.54358107    -0.45918558   
    826000   0.98331072     0.0049910731   0.48472021    -0.49127663   
    827000   0.96421977     0.0055253329   0.46983685    -0.48721104   
    828000   0.96372686     0.0049823259   0.46322149    -0.49333715   
    829000   0.97914719     0.0057826283   0.46359976    -0.50826452   
    830000   0.99047698     0.0062578002   0.46666774    -0.51644206   
    831000   0.96375854     0.0060342813   0.47252703    -0.48406306   
    832000   0.97146545     0.0062838089   0.47393128    -0.49030839   
    833000   1.0206726      0.0046166193   0.54705172    -0.4660291    
    834000   1.0292658      0.005409247    0.54641614    -0.47519393   
    835000   0.94883892     0.0058838204   0.46677374    -0.4750077    
    836000   1.0244488      0.0059665845   0.56763259    -0.44919637   
    837000   1.047168       0.0057066675   0.57796845    -0.46141066   
    838000   1.0529151      0.0053664684   0.61389031    -0.43119316   
    839000   0.99880892     0.0065486297   0.5548604     -0.43651936   
    840000   1.0370229      0.0054565698   0.58607892    -0.44323063   
    841000   0.99253816     0.0062220057   0.54488256    -0.44027308   
    842000   0.96806256     0.0065582724   0.48870118    -0.47216092   
    843000   0.98262958     0.0055439641   0.55283926    -0.42248151   
    844000   0.98544204     0.0055107341   0.56475226    -0.41336004   
    845000   1.0584895      0.0059627965   0.62591334    -0.42470307   
    846000   1.0654768      0.0052320594   0.61539052    -0.44216123   
    847000   0.9988341      0.0057917343   0.53639389    -0.45501087   
    848000   1.0188434      0.0055886863   0.56879818    -0.44246706   
    849000   0.95776278     0.005593166    0.47178617    -0.47885276   
    850000   1.09789        0.0061249859   0.61460377    -0.47512011   
    851000   0.98791261     0.0052947003   0.48231328    -0.49825123   
    852000   0.94664146     0.0051270661   0.47512108    -0.46447924   
    853000   1.0118365      0.0052312829   0.51228165    -0.49202882   
    854000   1.0237107      0.0054466779   0.50524598    -0.51085031   
    855000   0.96130386     0.0062137447   0.45876052    -0.49539315   
    856000   1.0529374      0.0065208166   0.5612239     -0.4838817    
    857000   0.91150816     0.0054366854   0.44350515    -0.4612232    
    858000   1.0363572      0.0067309454   0.54497824    -0.48367051   
    859000   1.0053873      0.0054015103   0.51599381    -0.48191538   
    860000   1.0263527      0.0069028614   0.50505835    -0.51366027   
    861000   1.0550045      0.0058563715   0.58207176    -0.46508563   
    862000   1.035891       0.0053822333   0.54894126    -0.47924473   
    863000   1.0143111      0.005655458    0.53596657    -0.47080006   
    864000   1.0257064      0.0058372653   0.56708539    -0.45099176   
    865000   0.98842044     0.0067595589   0.52262312    -0.45844544   
    866000   1.0143199      0.0061345721   0.5338584     -0.47291697   
    867000   0.94980829     0.0056673356   0.45398069    -0.48876291   
    868000   1.0303108      0.0063574602   0.50990817    -0.51273919   
    869000   0.99559977     0.0058744296   0.52380668    -0.4643878    
    870000   0.99011841     0.0059631668   0.4913167     -0.49143719   
    871000   0.92244841     0.0048200188   0.46010974    -0.45547749   
    872000   1.0345996      0.0059401921   0.52135212    -0.5055521    
    873000   1.0107352      0.0047488295   0.4695961     -0.53362121   
    874000   0.99458463     0.0046171561   0.45435477    -0.53283213   
    875000   1.0055834      0.0054876244   0.48408285    -0.51402096   
    876000   0.99462147     0.0045249603   0.43385519    -0.55336827   
    877000   1.0548931      0.0059623884   0.49358182    -0.55346492   
    878000   0.94057272     0.0054645493   0.40862633    -0.52495039   
    879000   0.98998695     0.0044547276   0.44615599    -0.53646742   
    880000   1.0116145      0.004920193    0.48891649    -0.5151736    
    881000   0.96423822     0.0047085181   0.43672936    -0.52033683   
    882000   1.0069021      0.006098473    0.50453209    -0.49488062   
    883000   0.94100239     0.0056918928   0.40609961    -0.52790359   
    884000   0.95885258     0.0054974164   0.40988407    -0.54183655   
    885000   1.0741306      0.0064146414   0.56453571    -0.50160548   
    886000   0.97663943     0.0058981877   0.454365      -0.51501018   
    887000   1.022252       0.005493336    0.4731989     -0.54144953   
    888000   1.0303363      0.0064288874   0.49534245    -0.52733016   
    889000   0.99735827     0.0063043044   0.48585458    -0.50408532   
    890000   1.0001962      0.0057591314   0.48580132    -0.50695538   
    891000   1.03581        0.0061851864   0.55087919    -0.47722648   
    892000   0.96803138     0.0045636498   0.4717979     -0.48903325   
    893000   1.0857767      0.0060322276   0.55604027    -0.52166043   
    894000   1.0397556      0.005219606    0.52048652    -0.51153538   
    895000   1.0038968      0.0054702702   0.49848497    -0.49794486   
    896000   0.97821942     0.0048694684   0.43557818    -0.53536523   
    897000   0.94871343     0.006281959    0.40427038    -0.53738651   
    898000   1.045555       0.0057384351   0.48524829    -0.55252987   
    899000   1.0268443      0.0057665131   0.4832086     -0.535998     
    900000   1.0081933      0.0065410751   0.45694055    -0.54375377   
    901000   0.96623213     0.0048843079   0.45092456    -0.50812072   
    902000   1.0555921      0.0057410241   0.55522903    -0.49251159   
    903000   0.98687478     0.0051364194   0.48788924    -0.49164515   
    904000   1.0413202      0.0063313054   0.51657695    -0.51699789   
    905000   1.0260838      0.0057806785   0.50755156    -0.51090024   
    906000   1.0089602      0.0047029389   0.48645068    -0.51500489   
    907000   0.97507235     0.0061056452   0.47866679    -0.48915296   
    908000   0.93873718     0.0039713773   0.40904874    -0.5227061    
    909000   1.0249766      0.0055037346   0.50105989    -0.51629291   
    910000   1.008874       0.00632892     0.47858277    -0.52278716   
    911000   0.98513599     0.0047187559   0.45483755    -0.52297099   
    912000   1.0573976      0.0066360428   0.55851157    -0.49102109   
    913000   0.96161169     0.0054657058   0.44078364    -0.51367556   
    914000   1.0005633      0.0054592999   0.4734065     -0.51971461   
    915000   0.97150188     0.007450029    0.43136216    -0.53291367   
    916000   1.0272637      0.0059055039   0.48828909    -0.53133381   
    917000   1.0097485      0.006723773    0.46136537    -0.54087262   
    918000   0.9343399      0.0046289126   0.40617792    -0.52121234   
    919000   1.0002117      0.0049273665   0.47867869    -0.51409346   
    920000   0.94607336     0.0058894727   0.38256895    -0.5564675    
    921000   1.0662961      0.00543925     0.49369733    -0.56466769   
    922000   0.97373987     0.0053748964   0.40636718    -0.56013      
    923000   1.0025603      0.0065134351   0.46021624    -0.53488697   
    924000   0.97513597     0.0055023183   0.41969056    -0.54819233   
    925000   1.1900293      0.0065557123   0.6398841     -0.54129373   
    926000   1.0280051      0.0065825289   0.48822526    -0.53213353   
    927000   0.99523026     0.0057637557   0.47177822    -0.5160495    
    928000   0.97319075     0.0055239044   0.43525484    -0.5306973    
    929000   0.92975738     0.0055434662   0.39527269    -0.52756913   
    930000   1.010623       0.0056177503   0.48531938    -0.51778658   
    931000   0.89969149     0.0050517522   0.36848169    -0.52451788   
    932000   0.9874224      0.0057691127   0.46974553    -0.51033241   
    933000   1.01401        0.0061105861   0.49013781    -0.51632997   
    934000   0.98746877     0.0055942562   0.43694473    -0.54317923   
    935000   0.94465705     0.0046233914   0.41454485    -0.52308583   
    936000   0.98590698     0.0076062468   0.45109312    -0.52748067   
    937000   0.98623742     0.0065428174   0.41684689    -0.56205488   
    938000   0.97893459     0.0061426932   0.45467721    -0.51697605   
    939000   0.89641691     0.0056166773   0.37324458    -0.51650476   
    940000   0.99730815     0.0065788465   0.49045042    -0.49943974   
    941000   0.99905236     0.0063531954   0.43456678    -0.55705461   
    942000   1.0402465      0.0057280283   0.49728078    -0.53522832   
    943000   0.92660927     0.0046586763   0.37265817    -0.54705896   
    944000   0.99351002     0.0044606843   0.46525855    -0.52086172   
    945000   1.0207811      0.0059103752   0.50153008    -0.51165845   
    946000   0.98213525     0.0057978401   0.47332263    -0.50150748   
    947000   0.98997276     0.0053384533   0.46912828    -0.51348105   
    948000   1.0847173      0.0069621425   0.57115319    -0.50549592   
    949000   0.95235461     0.0053288762   0.42677423    -0.51849675   
    950000   1.0468358      0.0046938979   0.52888073    -0.51016873   
    951000   0.97645052     0.0057662976   0.48173891    -0.48744875   
    952000   1.0360726      0.0060083828   0.5386725     -0.48969379   
    953000   1.0084371      0.0064925813   0.51287647    -0.48805982   
    954000   1.053944       0.0074676437   0.55887329    -0.48723145   
    955000   1.0461739      0.0063106768   0.55981571    -0.47857675   
    956000   1.0300951      0.0046646604   0.53850719    -0.48392609   
    957000   1.0203099      0.0040364223   0.54737503    -0.46534577   
    958000   0.9688102      0.0049243757   0.47620503    -0.48539915   
    959000   1.0414206      0.0070197687   0.57054349    -0.46313104   
    960000   1.0204225      0.0067757549   0.5386238     -0.47420878   
    961000   0.99163284     0.0061246939   0.49036019    -0.49389687   
    962000   0.97048673     0.0054027119   0.46583839    -0.49742985   
    963000   0.96468467     0.0065767172   0.44096964    -0.51653969   
    964000   0.99498487     0.0059581215   0.47854412    -0.50904003   
    965000   1.0645645      0.0052074842   0.55913581    -0.49751048   
    966000   1.0262088      0.0050943382   0.52541105    -0.49316474   
    967000   1.0212401      0.0058116594   0.53268406    -0.48096005   
    968000   0.98307136     0.0051058739   0.4576924     -0.51806686   
    969000   1.0162818      0.0067975597   0.4878595     -0.52086318   
    970000   1.0713077      0.0067658878   0.55493759    -0.5084017    
    971000   0.99515632     0.0062172378   0.48970023    -0.4980541    
    972000   1.0620503      0.0060252757   0.54954536    -0.50460537   
    973000   1.041628       0.0055989419   0.53706574    -0.49681461   
    974000   0.98182958     0.0059447114   0.48550105    -0.48902566   
    975000   1.0059598      0.0056412985   0.53205484    -0.46642266   
    976000   0.98849963     0.0065010778   0.5077723     -0.47337485   
    977000   0.99789265     0.0051348085   0.50251778    -0.48795252   
    978000   0.97110409     0.0057241302   0.50781463    -0.45606637   
    979000   0.99544327     0.0055785449   0.53285073    -0.45518841   
    980000   0.96091717     0.0053847254   0.47196765    -0.4818022    
    981000   1.0269814      0.005415228    0.54172156    -0.47762111   
    982000   0.9702738      0.0057860749   0.46788558    -0.4951713    
    983000   0.99742856     0.0055359556   0.48776407    -0.5022456    
    984000   0.94254316     0.0062107839   0.44754008    -0.48799243   
    985000   1.0421934      0.0056520596   0.5305706     -0.50387092   
    986000   1.077279       0.0057716851   0.58228146    -0.4869847    
    987000   0.96326189     0.005462124    0.45764491    -0.49845222   
    988000   1.0392066      0.0066347912   0.53129763    -0.5001793    
    989000   1.1103525      0.0071356938   0.59263847    -0.50945523   
    990000   1.006032       0.0050007369   0.51765907    -0.48089001   
    991000   0.96913938     0.0066856711   0.47044887    -0.49148204   
    992000   0.96157776     0.0060245097   0.48687154    -0.46755399   
    993000   0.94540356     0.0059096296   0.45970008    -0.47867155   
    994000   0.95351653     0.0058819876   0.47248026    -0.473944     
    995000   0.95034081     0.0052785343   0.48782607    -0.45544609   
    996000   1.0095018      0.0039761742   0.53262921    -0.4693639    
    997000   0.99556279     0.0062283777   0.51194122    -0.47621656   
    998000   0.99552768     0.0054961237   0.52863507    -0.45948786   
    999000   0.96926424     0.0052147068   0.46688467    -0.49517017   
   1000000   0.97783673     0.0057954049   0.46791855    -0.50264501   
Loop time of 32.3933 on 1 procs for 1000000 steps with 605 atoms

Performance: 26672206.603 tau/day, 30870.609 timesteps/s
98.2% CPU use with 1 MPI tasks x no OpenMP threads

MPI task timing breakdown:
Section |  min time  |  avg time  |  max time  |%varavg| %total
---------------------------------------------------------------
Pair    | 2.6233     | 2.6233     | 2.6233     |   0.0 |  8.10
Bond    | 0.047109   | 0.047109   | 0.047109   |   0.0 |  0.15
Neigh   | 8.4997     | 8.4997     | 8.4997     |   0.0 | 26.24
Comm    | 1.4588     | 1.4588     | 1.4588     |   0.0 |  4.50
Output  | 0.56883    | 0.56883    | 0.56883    |   0.0 |  1.76
Modify  | 17.039     | 17.039     | 17.039     |   0.0 | 52.60
Other   |            | 2.156      |            |       |  6.66

Nlocal:            605 ave         605 max         605 min
Histogram: 1 0 0 0 0 0 0 0 0 0
Nghost:            100 ave         100 max         100 min
Histogram: 1 0 0 0 0 0 0 0 0 0
Neighs:            128 ave         128 max         128 min
Histogram: 1 0 0 0 0 0 0 0 0 0

Total # of neighbors = 128
Ave neighs/atom = 0.21157025
Ave special neighs/atom = 0
Neighbor list builds = 218269
Dangerous builds = 0
Total wall time: 0:00:32
