fix fLANG all langevin 1.0 1.0 1.0 100
neigh_modify exclude molecule/intra all
fix rigidNVE linked_vesicle rigid/nve molecule
  1 rigid bodies with 5 atoms
fix NVE synapsin nve 1.0 1.0 1.0

    ##======================================##
    ## Output
    ##======================================##

thermo 1000
thermo_style custom step temp press etotal epair
thermo_modify flush yes
timestep 0.01

    ##======================================##
    ## Equilibration before output
    ##======================================##


    ##======================================##
    ## Run with output
    ##======================================##

fix enforce_2d all enforce2d
dump 2 all custom 1000 Results_eps_attr5_eps_rep1_range2_attr_with_repFalse_n_synapsin400_n_vesicles1/Movie_2d_eps_attr5_eps_rep1_range2_attr_with_repFalse_n_synapsin400_n_vesicles1.xyz id type mol x y z
run 1000000
Generated 0 of 3 mixed pair_coeff terms from geometric mixing rule
Neighbor list info ...
  update every 1 steps, delay 1 steps, check yes
  max neighbors/atom: 2000, page size: 100000
  master list distance cutoff = 11.52462
  ghost atom cutoff = 11.52462
  binsize = 5.7623102, bins = 55 55 1
  1 neighbor lists, perpetual/occasional/extra = 1 0 0
  (1) pair cosine/squared, perpetual
      attributes: half, newton on
      pair build: half/bin/newton
      stencil: half/bin/2d
      bin: standard
Per MPI rank memory allocation (min/avg/max) = 8.526 | 8.526 | 8.526 Mbytes
   Step          Temp          Press          TotEng         E_pair    
         0   0.99441908    -0.013071225    0.98336998     0            
      1000   1.052877       0.0040548885   1.0411809      2.5044906e-06
      2000   0.97902644     0.0030040622   0.96849889     0.00035052091
      3000   1.0601207      0.0035583022   1.0483416      0            
      4000   1.0466423      0.0043625821   1.0350129      0            
      5000   1.0005436      0.0035020426   0.98945454     2.8061539e-05
      6000   0.97028404     0.0030784247   0.95950311     0            
      7000   0.9429228      0.0035389451   0.9342467      0.001800821  
      8000   1.070792       0.0042930144   1.0588943      0            
      9000   1.099818       0.0040939823   1.0875978      0            
     10000   1.0644232      0.0046867354   1.0489296     -0.0036666768 
     11000   0.96128538     0.0042838964   0.94287787    -0.0077265603 
     12000   0.93211566     0.0029088934   0.91429166    -0.0074671627 
     13000   0.95315353     0.004519498    0.92926079    -0.013302142  
     14000   1.0551252      0.0043592185   1.0248876     -0.018513963  
     15000   0.96036245     0.0042360934   0.92582442    -0.023867337  
     16000   0.96266474     0.0042919275   0.94016376    -0.011804704  
     17000   1.0031051      0.0042323743   0.98095198    -0.011007488  
     18000   1.0920068      0.003990206    1.0676734     -0.012199984  
     19000   1.0098123      0.003608845    0.98655482    -0.012037358  
     20000   0.98470335     0.0041002197   0.9737622      0            
     21000   0.96250841     0.0045016203   0.95181387     0            
     22000   0.89184152     0.0041303058   0.88193217     0            
     23000   0.91064415     0.0038131258   0.90052588     0            
     24000   0.95342671     0.0035917524   0.94283308     0            
     25000   0.94961121     0.0037406077   0.93905997     0            
     26000   0.96445748     0.0042729766   0.95374129     0            
     27000   1.0046916      0.0043438281   0.98282677    -0.010701552  
     28000   1.0195029      0.0059442694   1.0020481     -0.0061269837 
     29000   1.0328259      0.0037656743   0.99981335    -0.021536712  
     30000   0.95693933     0.0037355404   0.92573435    -0.020572317  
     31000   1.0027232      0.0036366665   0.96782859    -0.023753211  
     32000   1.0553762      0.003816678    1.0241608     -0.019488992  
     33000   1.0072801      0.0041631193   0.9856058     -0.010482262  
     34000   0.95686451     0.0034543742   0.93859144    -0.0076412481 
     35000   1.0438786      0.0033997371   1.011702      -0.020577955  
     36000   0.98350743     0.0035716541   0.9557569     -0.016822678  
     37000   1.0242197      0.0044093367   0.98954789    -0.023291562  
     38000   0.99020941     0.0041998326   0.95759599    -0.021611092  
     39000   0.90589993     0.0034286146   0.87685145    -0.018982921  
     40000   1.0327783      0.0050941734   1.0005502     -0.020752751  
     41000   0.9393885      0.0038373769   0.90955562    -0.019395233  
     42000   1.0506622      0.004047067    0.99477744    -0.04421075   
     43000   0.99155143     0.0044197546   0.95246187    -0.028072318  
     44000   1.0477621      0.0035889699   1.0129462     -0.023174097  
     45000   1.0226414      0.0037117236   0.99577549    -0.015503203  
     46000   1.0458916      0.005145309    1.0103526     -0.023917984  
     47000   0.99351211     0.00445215     0.94686902    -0.035604069  
     48000   1.0652044      0.0043031626   1.0181075     -0.035261298  
     49000   1.007387       0.0046220743   0.94367995    -0.052513861  
     50000   0.93811152     0.0035677322   0.86789583    -0.059792236  
     51000   1.0054754      0.0038266321   0.93140905    -0.062894407  
     52000   1.0963593      0.0040745908   1.0321549     -0.052022584  
     53000   1.0471464      0.0043865123   0.97225076    -0.063260649  
     54000   1.0501995      0.0027784626   0.98127146    -0.057259156  
     55000   1.0012351      0.0031119771   0.9196888     -0.070421487  
     56000   1.0389141      0.0042925999   0.96964251    -0.05772814   
     57000   0.99726798     0.0046001954   0.90883026    -0.07735696   
     58000   0.96730025     0.0042590539   0.88973191    -0.066820557  
     59000   1.0204741      0.004945863    0.94695534    -0.06218016   
     60000   1.0220217      0.0043365337   0.95524582    -0.05542009   
     61000   1.0541448      0.0030886      0.9947159     -0.047716188  
     62000   0.96425443     0.0035831823   0.91582101    -0.037719479  
     63000   1.0650956      0.0047635392   0.99594792    -0.057313299  
     64000   0.99945484     0.0046131296   0.92161894    -0.066730839  
     65000   1.056454       0.0033880818   0.99543909    -0.049276563  
     66000   1.0313819      0.0029126515   0.96479579    -0.055126314  
     67000   0.99734964     0.0039316313   0.92610277    -0.060165208  
     68000   0.98086768     0.0051507115   0.92919987    -0.040769284  
     69000   1.0054236      0.002837121    0.94515889    -0.049093304  
     70000   1.0393551      0.0033950541   0.97699949    -0.050807183  
     71000   0.96053936     0.0035172567   0.90329304    -0.046573657  
     72000   1.0509801      0.0045381621   0.98201338    -0.057289176  
     73000   0.95664585     0.0038357143   0.9064245     -0.039591956  
     74000   0.92753303     0.0032061776   0.87297721    -0.044249905  
     75000   1.0278429      0.0043727089   0.96045181    -0.05597059   
     76000   1.0652721      0.003851323    1.0170649     -0.036370874  
     77000   1.0290379      0.0032894201   0.9629138     -0.054690391  
     78000   0.99473199     0.0047731293   0.93119225    -0.052487168  
     79000   1.0315105      0.004580263    0.96935676    -0.050692514  
     80000   1.0774528      0.0058218677   1.0120504     -0.053430651  
     81000   0.97154272     0.0043519082   0.93770486    -0.023042946  
     82000   1.0075162      0.0044113878   0.99632158     0            
     83000   0.99650425     0.0047105515   0.98543198     0            
     84000   0.92384267     0.0037332367   0.89315429    -0.020423459  
     85000   0.95011846     0.0028375702   0.92006573    -0.01949585   
     86000   1.0120028      0.0047070009   0.98406218    -0.016696185  
     87000   0.94674778     0.0032860158   0.91951031    -0.016718048  
     88000   1.0061301      0.0035170678   0.96345821    -0.031492692  
     89000   0.97765484     0.002987137    0.93842075    -0.028371259  
     90000   0.97703194     0.0032580554   0.9121312     -0.054044823  
     91000   1.0028028      0.0049917143   0.94609991    -0.045560639  
     92000   1.0047151      0.0043640267   0.95019168    -0.043359886  
     93000   1.0528637      0.0035739053   1.0184503     -0.022714874  
     94000   1.0073299      0.0044116295   0.98681038    -0.0093269179 
     95000   1.0170022      0.0030949224   0.96963338    -0.036068783  
     96000   1.0574301      0.0044712509   1.0050814     -0.040599502  
     97000   0.93183288     0.003275358    0.87021882    -0.051260361  
     98000   0.9788776      0.0035717482   0.93431467    -0.03368651   
     99000   0.97816596     0.0040873795   0.91336831    -0.053929134  
    100000   0.97179713     0.0034133174   0.92090953    -0.040089851  
    101000   1.1019361      0.0047084153   1.0300204     -0.059672055  
    102000   0.9702097      0.0039385556   0.91063225    -0.048797341  
    103000   1.0700742      0.0039449673   1.006221      -0.051963426  
    104000   0.98552245     0.0038237479   0.92944187    -0.045130337  
    105000   0.97855601     0.0036594959   0.9297872     -0.037895959  
    106000   0.96507172     0.0042380662   0.90104553    -0.053303166  
    107000   0.99562737     0.0040716522   0.92053703    -0.064027821  
    108000   0.94451412     0.0036976155   0.8876109     -0.046408625  
    109000   0.98765699     0.0038458931   0.92305052    -0.053632504  
    110000   1.0714155      0.004301505    1.0292192     -0.030291679  
    111000   1.0172649      0.0041095084   0.97648259    -0.029479402  
    112000   1.0232938      0.0034545354   0.98838987    -0.023534031  
    113000   1.0224813      0.0044003094   0.98824978    -0.02287065   
    114000   1.027085       0.0039429672   0.9778199     -0.037853014  
    115000   1.1222242      0.0048801029   1.0719521     -0.03780285   
    116000   1.0455451      0.0045351192   0.9998228     -0.03410508   
    117000   1.0189171      0.0046202571   0.96405648    -0.043539362  
    118000   1.0744707      0.0034989237   1.0404793     -0.022052831  
    119000   1.0430582      0.0032301657   1.0204488     -0.011019943  
    120000   1.0249306      0.0043606576   1.0014598     -0.012082644  
    121000   1.0979676      0.0044076246   1.0630952     -0.022672767  
    122000   0.98153591     0.0048519858   0.95046711    -0.020162842  
    123000   1.0452063      0.0050185596   1.0129742     -0.020618664  
    124000   0.9505352      0.0045255333   0.91152586    -0.028447832  
    125000   0.99511676     0.0040723552   0.95225033    -0.031809575  
    126000   1.019382       0.0035516448   0.96492987    -0.043125679  
    127000   1.004075       0.0042110695   0.9561297     -0.03678891   
    128000   1.0635063      0.0036003545   1.0184477     -0.033241849  
    129000   1.0216672      0.0041289071   0.97155294    -0.038762381  
    130000   0.99942417     0.0054390909   0.94564031    -0.042679154  
    131000   0.99995128     0.0033833072   0.96030761    -0.028533097  
    132000   0.93885317     0.0039088748   0.89514597    -0.033275496  
    133000   1.0010993      0.0038395866   0.94515768    -0.044818307  
    134000   1.0512699      0.0042122934   1.0001937     -0.039395418  
    135000   1.0469363      0.0046239189   0.97908378    -0.0562199    
    136000   0.91043767     0.0037469397   0.83539055    -0.064931147  
    137000   0.97308539     0.0044485836   0.89362291    -0.06865042   
    138000   0.96457716     0.0048580094   0.89470248    -0.059157157  
    139000   0.96255929     0.004388951    0.89748288    -0.054381298  
    140000   0.98387306     0.0043911326   0.93488877    -0.03805237   
    141000   1.0066517      0.0044970662   0.94057939    -0.054887255  
    142000   1.0363922      0.004442776    0.97812967    -0.046747039  
    143000   0.93229637     0.0040626294   0.88421752    -0.037719992  
    144000   1.0420905      0.0043573817   0.97891143    -0.051600264  
    145000   0.90748297     0.0046284369   0.84470555    -0.052694276  
    146000   0.94176948     0.0041387387   0.87454089    -0.056764487  
    147000   1.0243713      0.0038911468   0.97331899    -0.039670418  
    148000   1.0006779      0.0024675251   0.93208112    -0.057478151  
    149000   0.90465918     0.0036298358   0.84197255    -0.052634865  
    150000   1.0149414      0.0039860587   0.93698495    -0.066679285  
    151000   0.9612918      0.0042396576   0.90756174    -0.043049038  
    152000   1.0719672      0.0043510027   1.0164475     -0.043608913  
    153000   0.9915205      0.0040827724   0.94178733    -0.03871628   
    154000   1.037161       0.0045734713   1.0042654     -0.021371586  
    155000   1.111461       0.0040387591   1.0666186     -0.032492898  
    156000   1.0774243      0.0042575785   1.0351551     -0.030297809  
    157000   0.96160637     0.0035096072   0.91902658    -0.031895272  
    158000   1.0431981      0.0041066459   1.0079736     -0.023633414  
    159000   0.98208164     0.0034737673   0.95092941    -0.020240216  
    160000   1.0054848      0.002777351    0.97106848    -0.023244293  
    161000   0.97680121     0.0044972065   0.95383875    -0.012109121  
    162000   1.0473789      0.0028493637   1.0064397     -0.029301682  
    163000   1.0266627      0.0043044161   0.98028261    -0.034972744  
    164000   1.0362398      0.0038867099   0.99748783    -0.027238168  
    165000   1.0635673      0.0041312621   1.0287922     -0.022957758  
    166000   0.92988131     0.0039294175   0.88014228    -0.039407014  
    167000   0.99850462     0.0032980371   0.94552824    -0.041881884  
    168000   1.0811829      0.0036564245   1.03129       -0.037879703  
    169000   1.026207       0.0048246928   0.97809416    -0.036710558  
    170000   0.99022006     0.0045485807   0.93697287    -0.042244748  
    171000   1.0042971      0.0045898333   0.95761798    -0.03552027   
    172000   1.0590888      0.0043364078   1.0158129     -0.031508279  
    173000   1.0145529      0.0043256209   0.98557553    -0.017704531  
    174000   1.0671663      0.0049870998   1.020356      -0.034952884  
    175000   0.99171877     0.0035230916   0.94871065    -0.031989022  
    176000   0.94626782     0.0037156731   0.91130043    -0.024453305  
    177000   0.97264713     0.0037181013   0.93099694    -0.030842998  
    178000   0.96095104     0.0041313242   0.91658953    -0.033684276  
    179000   1.0118598      0.0036314011   0.96487448    -0.035742385  
    180000   0.94719234     0.002768835    0.90389752    -0.032770454  
    181000   0.99151844     0.0044334783   0.95419334    -0.026308222  
    182000   1.019083       0.0038070097   0.96288978    -0.044870089  
    183000   1.0423071      0.0049725037   0.99538534    -0.035340587  
    184000   1.0609765      0.0040406589   1.005877      -0.04331085   
    185000   1.02536        0.0040330064   0.96977439    -0.044192756  
    186000   0.98988949     0.0041362234   0.94161803    -0.037272687  
    187000   0.98221924     0.0035124996   0.93896123    -0.032344464  
    188000   1.0475002      0.0035605261   1.0165115     -0.019349799  
    189000   0.89962363     0.0026133418   0.85954857    -0.030079246  
    190000   1.0768583      0.0049623009   1.0263112     -0.038582043  
    191000   1.0472361      0.0044538583   0.98938006    -0.046220093  
    192000   1.0359242      0.003532773    0.99278271    -0.031631197  
    193000   1.0151526      0.0042061285   0.96028259    -0.043590539  
    194000   0.99758416     0.0044179405   0.95553201    -0.03096788   
    195000   1.0555202      0.0044564923   1.0161801     -0.027612023  
    196000   1.0490829      0.0037384476   0.99871073    -0.038715722  
    197000   0.98423996     0.0039209764   0.92901203    -0.044291923  
    198000   0.93706296     0.0043603228   0.87901178    -0.047639373  
    199000   0.96841259     0.0052454338   0.91244458    -0.045207873  
    200000   1.0052732      0.0037688966   0.96300458    -0.031098953  
    201000   1.035316       0.0043766003   0.96851216    -0.05530035   
    202000   0.9971265      0.0038418585   0.93393941    -0.052107906  
    203000   0.95035749     0.0027838031   0.87064172    -0.069156235  
    204000   0.97724472     0.0036253158   0.91477144    -0.051615008  
    205000   0.97661469     0.0039615641   0.89100788    -0.074755538  
    206000   0.96690744     0.0043606176   0.88237262    -0.073791404  
    207000   1.0523491      0.0044997283   0.9799711     -0.060685224  
    208000   0.95725683     0.0043560862   0.89821787    -0.048402774  
    209000   0.99226276     0.0046920665   0.94215042    -0.039087205  
    210000   1.0033183      0.0039443463   0.9491234     -0.043046905  
    211000   1.0589335      0.0045312408   0.98755844    -0.05960913   
    212000   0.98527169     0.0037840318   0.91937322    -0.054951015  
    213000   0.97029154     0.0037175911   0.90428128    -0.055229244  
    214000   1.0209149      0.0041775562   0.97794918    -0.03162221   
    215000   0.99880299     0.0044812536   0.94365509    -0.044050086  
    216000   0.99521757     0.0039167119   0.93977449    -0.044385099  
    217000   0.95112683     0.0030419898   0.89960473    -0.040954027  
    218000   1.0264247      0.0051506875   0.95571075    -0.059309214  
    219000   0.9858687      0.0032588057   0.93807874    -0.03683586   
    220000   1.0519595      0.0040094383   0.98185584    -0.05841519   
    221000   1.1042091      0.0045476863   1.0264375     -0.065502634  
    222000   1.0059683      0.004191551    0.94475955    -0.050031284  
    223000   0.95678625     0.0042072441   0.90108884    -0.045066449  
    224000   1.0104821      0.0038934651   0.97852504    -0.020729466  
    225000   1.0215796      0.0044228701   0.95153576    -0.05869292   
    226000   0.9627261      0.0034563701   0.90726571    -0.044763436  
    227000   1.0640948      0.0055228371   1.0219528     -0.030318717  
    228000   1.0360792      0.0049944952   0.98025184    -0.044315376  
    229000   1.0967136      0.004696705    1.0464686     -0.038059265  
    230000   0.97350294     0.0038241923   0.94174483    -0.020941413  
    231000   1.0394463      0.0049261074   1.0115487     -0.016348247  
    232000   1.0711903      0.0044155859   1.0401359     -0.019152299  
    233000   1.0086476      0.0038969009   0.97600765    -0.021432798  
    234000   0.94026773     0.0032012605   0.90156838    -0.02825193   
    235000   1.0158341      0.0039732388   0.97267501    -0.031872074  
    236000   1.0957373      0.0039190698   1.05846       -0.025102481  
    237000   1.0515665      0.0039225909   1.0030706     -0.036811905  
    238000   0.99426685     0.0041856749   0.94543453    -0.037784913  
    239000   0.91832344     0.0040114803   0.86731174    -0.040808107  
    240000   0.9993706      0.0043191957   0.95567904    -0.032587445  
    241000   0.92041418     0.0030638644   0.8811551     -0.029032257  
    242000   0.97634296     0.0046913491   0.93444527    -0.03104944   
    243000   0.9447855      0.0031904612   0.90011058    -0.034177307  
    244000   0.93075079     0.003645122    0.86329575    -0.057113364  
    245000   0.94515368     0.0034515951   0.8596303     -0.075021669  
    246000   0.97537383     0.0034600005   0.90635988    -0.058176462  
    247000   1.1035078      0.0043344813   1.0408412     -0.050405388  
    248000   0.97207865     0.0034081498   0.90867799    -0.052599787  
    249000   1.0589214      0.0043477553   1.0075962     -0.039559407  
    250000   0.95596021     0.00324015     0.90022586    -0.045112564  
    251000   0.92842266     0.0044774544   0.84444798    -0.073658867  
    252000   0.95764738     0.003872005    0.88577089    -0.061235964  
    253000   0.99927061     0.0045931125   0.94050657    -0.047661036  
    254000   1.0273215      0.0054718816   0.94645176    -0.069455099  
    255000   0.94957154     0.0044085299   0.87164072    -0.06738003   
    256000   0.94342002     0.0032238814   0.89859642    -0.034341153  
    257000   0.99341433     0.0034067961   0.93865738    -0.043719013  
    258000   1.013029       0.0040569568   0.97456892    -0.027204176  
    259000   1.0239851      0.0034870762   0.94341106    -0.06919646   
    260000   0.92310337     0.0036308688   0.83728242    -0.075564242  
    261000   1.0054766      0.0044714054   0.92955693    -0.064747737  
    262000   0.94303555     0.0039591496   0.88918302    -0.043374355  
    263000   0.94778322     0.0040590487   0.87088941    -0.066362892  
    264000   0.99999803     0.0036767519   0.93869388    -0.050193061  
    265000   1.0339018      0.0038116913   0.99122334    -0.031190671  
    266000   0.98684153     0.0032869123   0.93954653    -0.03633009   
    267000   0.92766886     0.0039975556   0.87159744    -0.045763991  
    268000   0.99179298     0.0042975874   0.93442337    -0.046349697  
    269000   0.97140905     0.0039475657   0.91803328    -0.042582339  
    270000   1.0413728      0.0043559085   0.98511033    -0.044691694  
    271000   1.0176257      0.0039198449   0.96353135    -0.042787404  
    272000   0.95302125     0.0027221327   0.90017293    -0.042259193  
    273000   1.028945       0.0042587608   0.96472117    -0.05279107   
    274000   1.0140395      0.0047878931   0.97219128    -0.030581165  
    275000   0.98864993     0.0026952948   0.93317396    -0.044490969  
    276000   1.0147254      0.0038597835   0.94785451    -0.055596176  
    277000   0.89598624     0.0025030299   0.83241658    -0.053614258  
    278000   1.0392308      0.0035216094   0.97836322    -0.049320605  
    279000   0.95891643     0.0033407987   0.89376798    -0.054493821  
    280000   1.0044905      0.0045412331   0.94302519    -0.050304271  
    281000   1.0582497      0.0046664549   1.0021289     -0.044362522  
    282000   1.0598502      0.0036120794   1.0053997     -0.042674313  
    283000   0.93337559     0.0036831736   0.88536251    -0.037642234  
    284000   1.0395065      0.0041004255   0.99474425    -0.033212219  
    285000   1.0257639      0.0046638125   0.99446068    -0.019905829  
    286000   1.0139783      0.003710336    0.97197382    -0.030738107  
    287000   1.0228516      0.004422804    0.99520862    -0.016277923  
    288000   0.94593277     0.004229648    0.9150535     -0.020368897  
    289000   0.98597402     0.0047310733   0.93147806    -0.0435407    
    290000   1.0097173      0.0041026242   0.9600519     -0.038446347  
    291000   0.95710159     0.0046381629   0.90463791    -0.041829211  
    292000   0.99455792     0.0035796703   0.93764248    -0.045864797  
    293000   1.0080966      0.0040947397   0.9588725     -0.038023052  
    294000   0.96190693     0.0038407817   0.9192948     -0.031924279  
    295000   1.0282411      0.0033848819   0.97691023    -0.039905957  
    296000   0.91616821     0.0043580209   0.86221612    -0.04377244   
    297000   1.0319603      0.0044050525   0.96350527    -0.056988775  
    298000   1.069614       0.0035989285   0.9917954     -0.065933976  
    299000   0.97017399     0.0038774748   0.91930565    -0.040088623  
    300000   0.98675203     0.0041201524   0.94476615    -0.031021971  
    301000   1.0326356      0.0038518522   0.97827673    -0.042885137  
    302000   0.96428706     0.0045788727   0.90826826    -0.045304501  
    303000   0.99949255     0.0039411304   0.94824029    -0.040146786  
    304000   0.98540331     0.0043285595   0.94528977    -0.029164615  
    305000   1.0072631      0.0049539696   0.94979688    -0.046274385  
    306000   0.98792423     0.0030099015   0.92527008    -0.051677209  
    307000   1.0399574      0.0044307852   0.99179571    -0.036606639  
    308000   0.98687452     0.0041050176   0.93320741    -0.042701838  
    309000   0.92933399     0.003852956    0.87082536    -0.048182698  
    310000   0.99934047     0.0041570674   0.93967584    -0.048560843  
    311000   0.99479645     0.0043123261   0.91413823    -0.069604928  
    312000   1.0241301      0.0047587455   0.94289399    -0.069856867  
    313000   0.98801394     0.004201811    0.89029507    -0.086740941  
    314000   0.92902792     0.0043857992   0.84555375    -0.073151632  
    315000   1.0786371      0.0037882436   0.99733097    -0.069321249  
    316000   0.97067592     0.0040058339   0.87416759    -0.085723045  
    317000   0.91940461     0.004224648    0.83586155    -0.073327445  
    318000   1.0631102      0.0038559289   0.97644998    -0.0748479    
    319000   1.0563005      0.0041677266   0.96181059    -0.082753197  
    320000   0.97324212     0.0046170427   0.87588108    -0.086547246  
    321000   0.91362168     0.0033402156   0.8289996     -0.07447073   
    322000   1.025295       0.0032040417   0.93103948    -0.082863379  
    323000   1.0790837      0.0051642799   0.99710077    -0.069993103  
    324000   0.94115187     0.0043289118   0.83082995    -0.099864677  
    325000   0.98126508     0.0043713935   0.88081418    -0.089547953  
    326000   1.0808154      0.0041527286   0.99692137    -0.071884937  
    327000   1.013962       0.0043330505   0.94083482    -0.061860916  
    328000   1.0195894      0.0046029558   0.93559467    -0.072665967  
    329000   0.96120381     0.004311818    0.87634753    -0.074176237  
    330000   1.0767338      0.0038200938   0.98986822    -0.07490187   
    331000   1.0083843      0.0042270728   0.92858604    -0.068593984  
    332000   1.0371887      0.0033722153   0.97384481    -0.051819617  
    333000   1.0068259      0.0046348145   0.91677621    -0.078862701  
    334000   1.0259656      0.0040156877   0.93359016    -0.080975802  
    335000   0.9434786      0.0042055412   0.88013995    -0.052855553  
    336000   1.0206518      0.0040571951   0.94864978    -0.060661399  
    337000   1.0461846      0.0051521502   0.98990255    -0.044657784  
    338000   1.0410968      0.00443703     0.97687712    -0.052651949  
    339000   1.0424841      0.0047538865   0.98955166    -0.041349285  
    340000   1.0432148      0.0039593382   0.97629424    -0.05532929   
    341000   0.98516187     0.0036620896   0.927835      -0.046380624  
    342000   0.94688156     0.0036282935   0.90767519    -0.02868546   
    343000   1.0643353      0.0044228778   1.0189593     -0.033550047  
    344000   1.1265788      0.0040173914   1.0827979     -0.031263327  
    345000   0.94530555     0.0032696886   0.90867098    -0.026131169  
    346000   1.0081547      0.004461224    0.96447002    -0.032482942  
    347000   1.1085641      0.0043177115   1.0600118     -0.036234945  
    348000   1.0151253      0.0041286709   0.99118263    -0.012663485  
    349000   1.0071564      0.0039891992   0.9757875     -0.020178264  
    350000   0.91158007     0.0039865966   0.88573693    -0.01571447   
    351000   0.98075145     0.0040065735   0.93860352    -0.031250697  
    352000   1.0942434      0.0045259913   1.058096      -0.023989063  
    353000   1.0066344      0.0039524257   0.97173286    -0.023716692  
    354000   0.92879281     0.0024838252   0.88935972    -0.029113172  
    355000   0.99542396     0.0037975285   0.96083536    -0.023528328  
    356000   1.0044629      0.0033374194   0.96147892    -0.031823309  
    357000   1.0071357      0.0030123926   0.94463351    -0.051311809  
    358000   0.94801234     0.0035439854   0.88433509    -0.053143779  
    359000   0.99161773     0.0048136024   0.9414018     -0.039197954  
    360000   0.97233359     0.0041071409   0.90675572    -0.054774157  
    361000   1.0797029      0.0054289281   1.0157758     -0.051930353  
    362000   1.0651285      0.004800443    1.0011763     -0.052117363  
    363000   1.0090165      0.0029120929   0.92315592    -0.074649286  
    364000   0.95932188     0.0031524997   0.87958188    -0.069080875  
    365000   0.99028559     0.003935063    0.89423749    -0.085044929  
    366000   0.99564921     0.0040681986   0.89635706    -0.088229382  
    367000   1.0289976      0.0026826784   0.942735      -0.074829283  
    368000   0.95152119     0.003789097    0.89438532    -0.04656341   
    369000   0.89162337     0.0040742185   0.81241483    -0.069301616  
    370000   0.97597764     0.0041352637   0.90336566    -0.061767783  
    371000   1.0229775      0.0033669545   0.98749021    -0.024120873  
    372000   1.0337846      0.0040644729   0.98583022    -0.036467886  
    373000   0.97541865     0.0034931685   0.94307486    -0.021505808  
    374000   1.0004618      0.004345676    0.95971969    -0.029625858  
    375000   1.0333195      0.004141256    0.97530108    -0.046537046  
    376000   0.98465856     0.0037601043   0.93018945    -0.043528455  
    377000   0.9649042      0.0031353274   0.92115174    -0.033031302  
    378000   1.0319526      0.0055313886   0.98781534    -0.032671078  
    379000   0.98825353     0.0042038142   0.94409469    -0.033178249  
    380000   0.96384412     0.0045417191   0.92181763    -0.031317112  
    381000   0.99094918     0.0040270156   0.95379586    -0.026142774  
    382000   0.99302454     0.0044589771   0.92005785    -0.06193308   
    383000   1.0617088      0.00430974     0.99431338    -0.055598692  
    384000   1.0388753      0.0051629263   0.9649522     -0.062380063  
    385000   1.0065901      0.0046313533   0.93261247    -0.062793258  
    386000   1.0627731      0.0053457167   0.97205657    -0.078907943  
    387000   0.93915654     0.0041541714   0.86029187    -0.068429595  
    388000   0.98120255     0.0048475484   0.90832669    -0.061973612  
    389000   0.99467805     0.0032586912   0.923305      -0.060321077  
    390000   0.99746464     0.0034025533   0.94160963    -0.044772062  
    391000   1.0990122      0.0057572058   1.0452982     -0.041502691  
    392000   0.99273074     0.0030626472   0.94443127    -0.037269133  
    393000   1.0308615      0.0034931363   0.96418173    -0.055225723  
    394000   1.0708343      0.0041228882   1.0100184     -0.048917676  
    395000   1.0288151      0.0032594367   0.96391124    -0.053472625  
    396000   0.95379658     0.004591503    0.87778933    -0.065409515  
    397000   0.99642219     0.0033336208   0.9333226     -0.052028233  
    398000   0.98244672     0.0041381729   0.91713669    -0.054393961  
    399000   0.91190143     0.0036429853   0.84976441    -0.052004783  
    400000   1.0727615      0.0052283713   1.0031615     -0.057680472  
    401000   1.0579116      0.0044239701   0.99163044    -0.054526549  
    402000   0.96188997     0.0038164524   0.90008915    -0.051113151  
    403000   1.0467956      0.0042012738   0.98395315    -0.051211427  
    404000   0.98198525     0.002987251    0.91497577    -0.056098535  
    405000   1.0638417      0.0041596489   0.99987964    -0.052141569  
    406000   1.0234344      0.0043963571   0.96449149    -0.047571454  
    407000   1.0137012      0.0039990974   0.97256448    -0.029873425  
    408000   1.0182568      0.0050390962   0.96456481    -0.042378005  
    409000   1.0681773      0.0046624138   1.0363241     -0.019984572  
    410000   0.98237287     0.0045148052   0.93821222    -0.033245391  
    411000   0.95032517     0.0040015752   0.91898285    -0.020783151  
    412000   0.9937152      0.0058650047   0.94914885    -0.033525068  
    413000   1.0238406      0.0041884803   0.9807181     -0.031746489  
    414000   0.96983169     0.0028379504   0.91419976    -0.044856015  
    415000   0.99083354     0.0028728792   0.93680515    -0.043019131  
    416000   1.068703       0.0048909871   1.0271233     -0.029705171  
    417000   0.9213347      0.003256442    0.86430771    -0.046789937  
    418000   1.0357561      0.0042414857   0.98173189    -0.0425158    
    419000   0.93396689     0.0027856343   0.87374441    -0.049845067  
    420000   0.97217515     0.0035205114   0.91923687    -0.042136335  
    421000   1.0708385      0.0053494787   1.0103967     -0.048543608  
    422000   1.0226298      0.0038815146   0.95814625    -0.053121038  
    423000   0.99276594     0.0035234041   0.93676739    -0.044967817  
    424000   0.9932863      0.0035614802   0.95174137    -0.030508416  
    425000   1.0333092      0.0036791051   0.98902894    -0.032799016  
    426000   1.0037434      0.0042629075   0.95775081    -0.034839928  
    427000   0.92930462     0.0043268476   0.89149269    -0.027486328  
    428000   1.0559654      0.0042180374   1.0166743     -0.027558154  
    429000   0.92341503     0.0033483242   0.88312475    -0.030030107  
    430000   1.000606       0.0038408782   0.95461761    -0.034870521  
    431000   0.97842685     0.0035724094   0.91703085    -0.050524585  
    432000   1.0448394      0.0039348329   0.99456102    -0.038669081  
    433000   0.90698935     0.0036870148   0.85518607    -0.04172562   
    434000   0.97199399     0.0033871172   0.916677      -0.04451705   
    435000   1.0552135      0.0040299599   1.0047961     -0.038692846  
    436000   0.98812757     0.0036889135   0.94231564    -0.034832733  
    437000   1.0764482      0.0047477847   1.0181881     -0.046299525  
    438000   0.91831778     0.0038288426   0.86998007    -0.038134181  
    439000   1.0287797      0.0043956035   0.97597231    -0.04137651   
    440000   1.0053968      0.0052291119   0.95980162    -0.034424077  
    441000   0.99193843     0.0037309521   0.9493341     -0.031582796  
    442000   0.99869706     0.0038158419   0.93469934    -0.052901081  
    443000   1.0454681      0.0049613802   0.98809386    -0.045757899  
    444000   0.97051096     0.0037590794   0.91724269    -0.04248482   
    445000   1.014138       0.0043790785   0.94281622    -0.060053616  
    446000   1.0016432      0.0035971916   0.92105499    -0.069458839  
    447000   1.0670444      0.0043875655   0.99756751    -0.057620885  
    448000   0.96033038     0.0037355901   0.89051247    -0.059147569  
    449000   0.923253       0.0037758807   0.84674404    -0.066250593  
    450000   1.0001962      0.0045746267   0.9323741     -0.056708849  
    451000   0.91930264     0.0033132278   0.86071866    -0.048369509  
    452000   1.021591       0.0044861865   0.94464305    -0.065596907  
    453000   1.0116272      0.004728157    0.9277895     -0.072597415  
    454000   0.99644225     0.0034912778   0.90916059    -0.076210084  
    455000   0.97638732     0.0031099355   0.90412184    -0.061416728  
    456000   0.97418706     0.0028087012   0.88568323    -0.077679528  
    457000   1.1181301      0.0037669058   1.0369548     -0.068751632  
    458000   1.0060261      0.0040190848   0.92619552    -0.068652475  
    459000   0.99598232     0.0040504799   0.9305679     -0.054347956  
    460000   0.9498298      0.0036874681   0.88011372    -0.059162409  
    461000   1.0683234      0.0045794336   1.0153149     -0.041138268  
    462000   0.94996057     0.0020359065   0.88255144    -0.056854007  
    463000   0.96064633     0.0024107466   0.89814631    -0.051826174  
    464000   0.89732928     0.0040383604   0.83264511    -0.054713849  
    465000   0.9625215      0.0049148017   0.90442269    -0.04740413   
    466000   0.9502729      0.0030738446   0.88252903    -0.057185281  
    467000   0.96806418     0.004482808    0.89337405    -0.063933861  
    468000   1.0103423      0.0043310776   0.94268756    -0.056428696  
    469000   1.0552306      0.0042520343   0.98071113    -0.062794725  
    470000   0.97738519     0.0051922492   0.90687115    -0.059654208  
    471000   0.96298062     0.0035711102   0.91974463    -0.03253621   
    472000   1.0323442      0.0040062369   0.97308779    -0.047785959  
    473000   1.0751183      0.0044597521   1.0000447     -0.063127902  
    474000   1.0349313      0.0038283736   0.95141843    -0.07201362   
    475000   1.0020193      0.0042526369   0.95853596    -0.032349833  
    476000   1.0173155      0.0042222964   0.96278931    -0.0432227    
    477000   1.072746       0.0044320812   1.0148504     -0.045976188  
    478000   0.92402905     0.0041210257   0.86854347    -0.045218593  
    479000   0.98691737     0.0032905547   0.93724541    -0.038706207  
    480000   1.0142856      0.0052641699   0.96418619    -0.038829604  
    481000   1.0325226      0.0038169647   0.98082134    -0.040228779  
    482000   1.1207063      0.0047790164   1.0636908     -0.044563172  
    483000   0.96893762     0.0048233921   0.9196229     -0.038548749  
    484000   0.99424357     0.002997701    0.93815478    -0.045041631  
    485000   1.0094204      0.0033615131   0.94894934    -0.049255233  
    486000   0.98336134     0.0054122027   0.9281669     -0.044268196  
    487000   0.98249642     0.0042401132   0.92268633    -0.04889346   
    488000   0.95323985     0.0038636719   0.90546406    -0.037184236  
    489000   0.97029056     0.0035268641   0.91671835    -0.042791201  
    490000   1.0653608      0.0032866683   1.0271031     -0.026420329  
    491000   0.99193312     0.0038331667   0.93754873    -0.043362911  
    492000   0.99767068     0.0049426223   0.94920156    -0.037383892  
    493000   0.99355526     0.0042790565   0.94419272    -0.03832304   
    494000   1.0128002      0.0043066624   0.95112343    -0.050423424  
    495000   0.9407252      0.0040598315   0.88454416    -0.045728539  
    496000   0.95944766     0.0034320019   0.89514639    -0.053640741  
    497000   1.03384        0.0033974638   0.97286291    -0.049489987  
    498000   1.0099297      0.0039067649   0.96302011    -0.035688173  
    499000   1.0451706      0.004973594    0.98759778    -0.045959784  
    500000   1.0052491      0.0043127812   0.93562663    -0.058453065  
    501000   1.0559383      0.0037834905   0.98266532    -0.061540347  
    502000   1.0124166      0.0033369214   0.95758228    -0.043585242  
    503000   0.97943631     0.0040071045   0.91214726    -0.056406421  
    504000   0.9949607      0.0029675485   0.94381572    -0.040089857  
    505000   0.94609735     0.0036148746   0.87827987    -0.057305296  
    506000   1.0140138      0.003606679    0.9364985     -0.066248443  
    507000   1.0228758      0.0044081107   0.96299611    -0.048514357  
    508000   0.95314417     0.0038864808   0.8925943     -0.049959373  
    509000   1.0126027      0.0044819451   0.9501929     -0.051158668  
    510000   1.0142673      0.0042715702   0.95570009    -0.04729753   
    511000   0.99578064     0.0037756302   0.9191682     -0.065548208  
    512000   1.0517506      0.0038167656   0.98900436    -0.051060142  
    513000   1.0586135      0.0042788847   0.9975741     -0.049277019  
    514000   1.0332801      0.0044844699   0.97970074    -0.042098427  
    515000   1.0005298      0.0044124768   0.93951506    -0.049897695  
    516000   1.0186948      0.0046162839   0.95023507    -0.057140875  
    517000   1.017427       0.0047094981   0.96281082    -0.043311462  
    518000   0.98321752     0.0044616783   0.92232784    -0.049965037  
    519000   0.97268469     0.0035745339   0.91585586    -0.04602122   
    520000   1.0865133      0.0050280257   1.0164843     -0.057956598  
    521000   0.93857696     0.0039084433   0.88550699    -0.042641335  
    522000   0.92425997     0.0027809545   0.86312649    -0.050863928  
    523000   1.0235095      0.0037688815   0.97738838    -0.034748752  
    524000   1.0902647      0.0039438306   1.0348387     -0.043311948  
    525000   0.98809196     0.0036504026   0.92577142    -0.051341743  
    526000   0.97917667     0.0038431106   0.91608872    -0.05220821   
    527000   1.0592082      0.0045950987   0.99289713    -0.054542052  
    528000   1.0124319      0.0041257013   0.95599861    -0.045184006  
    529000   0.94275199     0.0028711956   0.87656333    -0.055713638  
    530000   0.96299231     0.0045844742   0.89528598    -0.057006422  
    531000   1.0034674      0.0045118526   0.92460239    -0.067715387  
    532000   1.0010924      0.0038102869   0.91837862    -0.071590546  
    533000   1.0124073      0.0038053447   0.95198668    -0.049171623  
    534000   0.91495554     0.0035520792   0.85262256    -0.052166804  
    535000   1.0403139      0.0039284158   0.9775325     -0.051222381  
    536000   0.98519161     0.0039674899   0.93952329    -0.03472175   
    537000   1.0365258      0.0035107454   0.98457528    -0.040433544  
    538000   1.0331614      0.0033113924   0.96286792    -0.058813897  
    539000   0.97070817     0.0045731402   0.9089255     -0.050997023  
    540000   1.016604       0.0036432473   0.94632895    -0.058979484  
    541000   1.0436571      0.0037108302   0.94791145    -0.084149486  
    542000   1.0154528      0.0043003896   0.93075771    -0.073412304  
    543000   1.0448998      0.0036048404   0.95887611    -0.074413719  
    544000   1.0189171      0.0043109017   0.95112821    -0.056467563  
    545000   0.99683716     0.0035995633   0.91728858    -0.068472607  
    546000   0.9875597      0.0042924312   0.9083442     -0.068242616  
    547000   1.0173661      0.0037686316   0.93946656    -0.066595476  
    548000   1.0377822      0.0051023238   0.96831706    -0.057934246  
    549000   1.0206556      0.004056303    0.94613522    -0.063179797  
    550000   1.1294357      0.0042222295   1.0487545     -0.068131906  
    551000   0.95758705     0.0038239925   0.87141718    -0.075530006  
    552000   0.91812804     0.0033963282   0.85403775    -0.053888869  
    553000   1.0704893      0.0048224916   0.99911183    -0.059483126  
    554000   1.0034452      0.0035703478   0.92903381    -0.063262012  
    555000   1.0161695      0.0039281603   0.93398266    -0.070896073  
    556000   1.0216781      0.0047451735   0.94749187    -0.062834204  
    557000   1.0896792      0.0054637829   1.018076      -0.059495603  
    558000   0.97426842     0.0046304977   0.90505241    -0.058390805  
    559000   0.99871357     0.0027929412   0.94897562    -0.038641136  
    560000   1.0252452      0.0047177653   0.98061601    -0.033237556  
    561000   1.0240574      0.0045634932   0.97111594    -0.041563027  
    562000   0.99003993     0.0042583924   0.92439813    -0.054641358  
    563000   0.99255296     0.0037727474   0.93894586    -0.042578736  
    564000   1.0458069      0.0041918969   0.99655252    -0.03763431   
    565000   0.97941682     0.0028562876   0.93701775    -0.031516663  
    566000   1.0410525      0.0046102706   1.0020994     -0.027385844  
    567000   0.93914209     0.005012837    0.89843459    -0.030272593  
    568000   0.99711608     0.0044166678   0.96314445    -0.022892569  
    569000   0.98668268     0.0036595773   0.93984282    -0.035876721  
    570000   1.010385       0.0036967369   0.95123403    -0.047924437  
    571000   1.0424684      0.0043341159   0.98507543    -0.045809968  
    572000   1.0083272      0.0040097027   0.95331268    -0.043810882  
    573000   1.0621913      0.0040304401   1.00561       -0.044779114  
    574000   1.0174299      0.0048078851   0.96314515    -0.04298002   
    575000   1.0851659      0.0046476042   1.0283719     -0.044736674  
    576000   1.0142088      0.0041374031   0.94697652    -0.055963258  
    577000   1.0397114      0.0038286056   0.99344184    -0.034717194  
    578000   0.96538432     0.003458845    0.91052552    -0.044132301  
    579000   0.94673514     0.0036388683   0.8895879     -0.046627956  
    580000   0.8475936      0.0036950316   0.79526064    -0.042915255  
    581000   0.98695486     0.0032121393   0.92702949    -0.048959203  
    582000   1.0773343      0.0048586748   1.0037442     -0.061619718  
    583000   1.0710442      0.0047487596   0.99520438    -0.063939302  
    584000   0.95058389     0.0031536855   0.86543458    -0.07458727   
    585000   0.87045623     0.0042229254   0.78925551    -0.071528989  
    586000   1.0216847      0.0032906381   0.94876427    -0.061568417  
    587000   1.1032208      0.0039791184   1.0239645     -0.066998277  
    588000   1.026174       0.0043059473   0.94963323    -0.065138787  
    589000   1.1011235      0.0052305002   1.0350768     -0.053811994  
    590000   1.0161033      0.0048521408   0.94697526    -0.057838021  
    591000   1.0719228      0.0041572438   1.0111897     -0.048822843  
    592000   0.84167543     0.0044259422   0.77806458    -0.054258896  
    593000   1.0433627      0.0043316971   0.97745439    -0.054315355  
    594000   0.95264339     0.0029894783   0.90023031    -0.041828156  
    595000   0.94868877     0.004507447    0.90294292    -0.035204862  
    596000   1.0157285      0.0040183689   0.97252313    -0.03191946   
    597000   1.0421031      0.0040099613   0.99168932    -0.038834899  
    598000   1.0358856      0.0042182431   0.97807117    -0.046304588  
    599000   0.97992759     0.0027717308   0.92846271    -0.040576801  
    600000   1.1093926      0.0043219717   1.0632076     -0.033858408  
    601000   0.99678056     0.0028881013   0.95064075    -0.035064479  
    602000   1.0276967      0.0036635747   0.96121998    -0.05505785   
    603000   0.94806115     0.0040355137   0.89732082    -0.040206317  
    604000   0.92888345     0.0040937176   0.87608248    -0.042480042  
    605000   0.96126408     0.0029435384   0.91879096    -0.031792401  
    606000   1.0203013      0.0041042794   0.97173208    -0.037232496  
    607000   1.0066854      0.0037996256   0.9610846     -0.034415408  
    608000   1.0454768      0.0035138002   1.0035707     -0.03028974   
    609000   0.9448633      0.0030913063   0.90117624    -0.033188583  
    610000   0.98180667     0.003179872    0.94390892    -0.026988786  
    611000   0.93983336     0.0030832104   0.90284015    -0.026550616  
    612000   1.0065808      0.0037747351   0.97105879    -0.024337749  
    613000   1.0065584      0.0038934834   0.96246145    -0.032913018  
    614000   1.0227179      0.0050562418   0.9722419     -0.039112497  
    615000   1.0478488      0.0045654019   0.9940382     -0.042167817  
    616000   1.0592986      0.0043915979   1.0128274     -0.034701261  
    617000   0.92744302     0.0030466234   0.89421219    -0.022925906  
    618000   0.99663053     0.003947816    0.95418622    -0.031370633  
    619000   1.078489       0.0040880783   1.0459015     -0.02060429   
    620000   0.97813545     0.0031432477   0.94978113    -0.017486148  
    621000   0.9513771      0.0042516576   0.90810352    -0.032702723  
    622000   0.9074885      0.0035047272   0.84568622    -0.051719075  
    623000   0.92122994     0.0039620971   0.87446107    -0.036532983  
    624000   1.0031577      0.0044502817   0.96792081    -0.024090679  
    625000   1.0169609      0.0046139986   0.95385612    -0.051805196  
    626000   1.0200625      0.0037941869   0.95828886    -0.050439597  
    627000   1.0521144      0.0034348557   1.0065664     -0.033857855  
    628000   1.0287474      0.0035096023   0.99853515    -0.018781744  
    629000   0.96404471     0.003907702    0.93043722    -0.022895882  
    630000   1.0437791      0.0040862839   1.0149289     -0.0172526    
    631000   0.96270266     0.0039397153   0.92104135    -0.030964617  
    632000   1.0054258      0.0037755725   0.97131072    -0.022943686  
    633000   1.0405206      0.0042765697   0.99651946    -0.032439852  
    634000   1.0444459      0.002802623    0.99078122    -0.042059698  
    635000   1.023583       0.0054308608   0.97056134    -0.041648467  
    636000   0.97145082     0.0041369787   0.92390595    -0.036750966  
    637000   1.0376347      0.0052523216   0.97920922    -0.04689617   
    638000   1.0233383      0.0047040824   0.95407331    -0.057894555  
    639000   1.0133715      0.0041020734   0.9458512     -0.056260599  
    640000   0.94574684     0.0033929563   0.89076032    -0.044478218  
    641000   1.062939       0.004544079    0.99695321    -0.054175394  
    642000   0.91112435     0.0028092158   0.83559474    -0.065406003  
    643000   1.0012064      0.0035638945   0.93289216    -0.057189695  
    644000   0.95056521     0.0040564685   0.88159695    -0.058406428  
    645000   0.98061282     0.003568008    0.91347521    -0.056241909  
    646000   0.98088056     0.0033856144   0.94573028    -0.024251605  
    647000   1.017398       0.0038423261   0.98160431    -0.024489297  
    648000   1.0268185      0.0040098455   0.98162112    -0.033788296  
    649000   0.98355578     0.0040434391   0.93520854    -0.037418842  
    650000   1.018485       0.0051179193   0.96495775    -0.042210751  
    651000   0.92297715     0.0040382377   0.88332789    -0.029393966  
    652000   1.0646021      0.0038429836   1.0191855     -0.033587694  
    653000   1.074047       0.0043057977   1.0323414     -0.029771721  
    654000   1.0526762      0.0036145287   1.0139733     -0.027006473  
    655000   0.99313419     0.0030625972   0.93930369    -0.042795682  
    656000   0.99947796     0.0030521713   0.96651413    -0.021858514  
    657000   1.0203195      0.004297281    0.96583962    -0.043142972  
    658000   0.95253141     0.0041915038   0.88671311    -0.05523462   
    659000   1.1035689      0.004234111    1.0503911     -0.040915853  
    660000   1.0647844      0.0047553034   0.99822571    -0.054727797  
    661000   1.0952255      0.0035862661   1.0347227     -0.048333664  
    662000   1.0357838      0.0045743687   0.96685354    -0.057421524  
    663000   1.0648857      0.0037653636   1.0061255     -0.046928135  
    664000   0.9007771      0.0042800536   0.86123841    -0.029530055  
    665000   0.9822767      0.0040231231   0.91858602    -0.052776495  
    666000   0.98534162     0.0041543065   0.92711495    -0.047278427  
    667000   0.96897506     0.0027464555   0.90726974    -0.050938935  
    668000   1.0025898      0.0037334735   0.94164834    -0.049801552  
    669000   1.1011015      0.0041064777   1.0441923     -0.044674794  
    670000   1.0541595      0.0039800909   0.99024531    -0.052201354  
    671000   0.98936884     0.0040536542   0.94186385    -0.036511998  
    672000   0.93074585     0.0037211081   0.88758563    -0.032818608  
    673000   0.91530444     0.0041560618   0.87122526    -0.033909129  
    674000   1.0303686      0.0039691386   0.97386437    -0.045055725  
    675000   1.0497809      0.0050689777   1.0044922     -0.033624447  
    676000   1.045183       0.0050328638   0.99481154    -0.038758306  
    677000   0.93979514     0.0030795078   0.88602225    -0.043330715  
    678000   0.98762303     0.0042203827   0.94912708    -0.027522361  
    679000   0.96650674     0.0037798426   0.90050717    -0.055260607  
    680000   0.99413237     0.004469988    0.93006353    -0.053022929  
    681000   1.0036572      0.0037070867   0.95874555    -0.033759866  
    682000   0.94013301     0.0040034491   0.87666338    -0.053023706  
    683000   1.0234989      0.0044067183   0.96335245    -0.0487742    
    684000   0.9215454      0.0050318903   0.86651137    -0.044794637  
    685000   1.0539616      0.0043155277   0.99995161    -0.042299283  
    686000   1.0652779      0.0035295674   0.99763116    -0.055810282  
    687000   1.0171561      0.0040600046   0.95277881    -0.053075601  
    688000   1.0113045      0.0040205697   0.94383855    -0.05622928   
    689000   1.0667303      0.0040783199   1.001305      -0.053572674  
    690000   1.0369131      0.0051760838   0.98430854    -0.041083268  
    691000   0.95870754     0.0039187489   0.91158491    -0.036470325  
    692000   0.9505216      0.0043494649   0.89445376    -0.045506488  
    693000   0.92397051     0.0035638083   0.86716066    -0.046543505  
    694000   0.99053641     0.0046698421   0.94424486    -0.035285588  
    695000   0.96768251     0.0044536695   0.92208691    -0.034843565  
    696000   1.0754941      0.0045237229   1.02139       -0.042154088  
    697000   1.0171933      0.0048288046   0.97187289    -0.034018239  
    698000   0.97304813     0.0034102907   0.92756976    -0.034666723  
    699000   1.098296       0.0039675996   1.0529136     -0.03317912   
    700000   0.99153806     0.0046331269   0.9395828     -0.040938173  
    701000   1.0013391      0.003122834    0.9726219     -0.017591187  
    702000   1.0003744      0.0051627198   0.94342214    -0.045837007  
    703000   1.041512       0.0030677746   0.99548633    -0.034453362  
    704000   0.99986168     0.0043228778   0.95444184    -0.03431026   
    705000   0.98660742     0.0047810225   0.93245918    -0.043185933  
    706000   1.0087451      0.0047114619   0.95212885    -0.045407954  
    707000   1.067234       0.0045281112   1.0053651     -0.050010721  
    708000   0.99811468     0.0031086305   0.93830773    -0.048716785  
    709000   1.0833883      0.0042012255   1.0265447     -0.044805956  
    710000   1.0167406      0.003733207    0.94741403    -0.058029443  
    711000   0.9372364      0.0043939891   0.88455782    -0.042264849  
    712000   0.95440222     0.0023524624   0.88384785    -0.059949898  
    713000   1.0233537      0.0048328575   0.94317431    -0.068808825  
    714000   1.0102693      0.0042188257   0.93290219    -0.066141874  
    715000   0.99792331     0.0033100564   0.91445931    -0.072375961  
    716000   1.0046786      0.0041539892   0.9289915     -0.064523995  
    717000   0.90636705     0.0031497524   0.82720817    -0.069088136  
    718000   0.96263097     0.0046712648   0.86820089    -0.083734179  
    719000   0.98099423     0.004223978    0.89905113    -0.071043167  
    720000   1.0586904      0.0046418507   0.95886407    -0.088063121  
    721000   1.1133643      0.0041170073   1.034854      -0.066139527  
    722000   0.88159891     0.0025286326   0.78738625    -0.084417115  
    723000   1.0121519      0.0045590933   0.91153743    -0.089368311  
    724000   0.93749187     0.0029774803   0.85061097    -0.076464327  
    725000   0.98092688     0.0042560899   0.89610437    -0.073923319  
    726000   0.98928596     0.0049022472   0.90383646    -0.074457432  
    727000   1.0302024      0.0054219274   0.95867005    -0.060085671  
    728000   0.98948993     0.0043526154   0.90756329    -0.070932305  
    729000   1.0268587      0.003864721    0.94142665    -0.074022545  
    730000   1.0384546      0.0034802799   0.97821915    -0.048697117  
    731000   1.0098522      0.0038036612   0.93381143    -0.064820197  
    732000   0.90402141     0.0038931837   0.81944449    -0.074532238  
    733000   1.0115428      0.0037929854   0.92453505    -0.075768364  
    734000   0.9546177      0.0035356022   0.87005615    -0.073954679  
    735000   1.0146933      0.0038191463   0.91040624    -0.09301269   
    736000   1.0999766      0.0043740465   1.0246157     -0.06313899   
    737000   1.0152185      0.0046059846   0.92750904    -0.076429265  
    738000   0.94559094     0.0037325662   0.86061057    -0.07447381   
    739000   1.0584544      0.0039108177   0.96803173    -0.078662074  
    740000   0.98681042     0.0035962845   0.90405414    -0.071791724  
    741000   0.98591854     0.0042592145   0.89485219    -0.080111696  
    742000   0.95705711     0.0043104806   0.87818292    -0.068240231  
    743000   0.99331071     0.0045150157   0.91301954    -0.069254384  
    744000   0.92008988     0.0038630539   0.85413066    -0.055736005  
    745000   0.96647349     0.0034661166   0.90372648    -0.052008418  
    746000   1.0531383      0.0048981848   0.99027904    -0.051157676  
    747000   0.95274232     0.0036481431   0.88992608    -0.052230212  
    748000   0.86925844     0.0034033046   0.80354449    -0.056055515  
    749000   1.0387286      0.0037719612   0.9651171     -0.062070088  
    750000   1.0229385      0.0036283479   0.95639703    -0.055175499  
    751000   0.98543228     0.0041124207   0.93101891    -0.04346412   
    752000   1.0642151      0.005082577    1.0170601     -0.035330334  
    753000   1.05469        0.0042756868   0.99899453    -0.043976661  
    754000   0.98042728     0.0038512507   0.92449084    -0.045042808  
    755000   0.95234443     0.0028601188   0.91406683    -0.027695998  
    756000   0.99884247     0.0037363879   0.93713897    -0.05060525   
    757000   1.0595531      0.0042516265   1.0029103     -0.044869978  
    758000   0.95889576     0.0033491853   0.90052555    -0.047715812  
    759000   0.98651193     0.0043024396   0.92064019    -0.054910495  
    760000   1.0210342      0.0040890236   0.97479962    -0.034889779  
    761000   1.0160541      0.0031593094   0.97110706    -0.033657511  
    762000   0.98421017     0.0044356576   0.93817781    -0.035096693  
    763000   1.0355971      0.0049067595   0.98360196    -0.040488539  
    764000   0.95119645     0.0032047122   0.91319776    -0.027429845  
    765000   0.97025998     0.0035396857   0.92632972    -0.033149595  
    766000   1.0241778      0.0042730766   0.97124763    -0.041550402  
    767000   0.96097221     0.0044638737   0.90430427    -0.045990465  
    768000   1.0322185      0.0038133338   0.97188256    -0.048866864  
    769000   1.0496956      0.0043346738   0.99210215    -0.045930169  
    770000   0.8895793      0.003742633    0.84347628    -0.036218808  
    771000   0.99005004     0.0031348229   0.95600146    -0.023048028  
    772000   0.97788059     0.0039963756   0.92752757    -0.039487676  
    773000   1.060519       0.0044067993   0.99812095    -0.050614552  
    774000   1.0319768      0.0045632696   0.9720396     -0.048470753  
    775000   1.1321569      0.0039983541   1.0999871     -0.019590325  
    776000   0.96605987     0.0047698589   0.90120371    -0.054122162  
    777000   0.96515675     0.0039407968   0.88898435    -0.065448439  
    778000   1.0006033      0.0044169485   0.94358263    -0.045902828  
    779000   0.97576143     0.0029265987   0.9286948     -0.036224839  
    780000   1.0039608      0.0041867241   0.95911199    -0.033693664  
    781000   0.95788638     0.0038444926   0.90090667    -0.046336525  
    782000   1.0686965      0.0054903178   1.0310329     -0.025789189  
    783000   0.90807258     0.0035253034   0.85338613    -0.044596757  
    784000   0.9728456      0.0042179292   0.92060763    -0.041428574  
    785000   0.97348721     0.0046591483   0.94193052    -0.020740158  
    786000   0.98074784     0.0048020539   0.92414676    -0.045703878  
    787000   0.99286286     0.0036711662   0.94864232    -0.033188728  
    788000   1.0321432      0.0039694365   0.98620945    -0.034465538  
    789000   1.0490816      0.0046279295   0.99733327    -0.040091849  
    790000   1.1680934      0.0046771423   1.1123846     -0.042729983  
    791000   1.0230352      0.0036556061   0.97446565    -0.037202519  
    792000   1.0580116      0.0037847871   1.001976      -0.044279966  
    793000   0.95740813     0.0034723114   0.89927345    -0.047496813  
    794000   0.96773869     0.0037860438   0.89864143    -0.05834461   
    795000   0.95473505     0.0043633322   0.90316009    -0.040966785  
    796000   1.0635336      0.005754664    1.0091854     -0.042531121  
    797000   0.97539178     0.0041445069   0.91894468    -0.045609409  
    798000   1.0769916      0.0048565707   1.0199278     -0.045097231  
    799000   1.0128077      0.0036299818   0.95373499    -0.047819305  
    800000   1.0180554      0.004622524    0.95760368    -0.049139952  
    801000   0.98472085     0.00347787     0.91009118    -0.063688325  
    802000   1.0504261      0.0052513391   0.97855984    -0.060194887  
    803000   0.93329605     0.0037908337   0.87046186    -0.052464229  
    804000   0.99120434     0.0040849649   0.92940604    -0.050784918  
    805000   1.0828981      0.0048999372   1.0094148     -0.061451161  
    806000   1.0147431      0.003223174    0.94905849    -0.054409648  
    807000   1.0745635      0.0042947885   0.9678892     -0.094734713  
    808000   1.079137       0.004704546    0.98990067    -0.077245959  
    809000   1.0788668      0.0043904106   1.0031391     -0.063740264  
    810000   1.0242142      0.0044908076   0.96532925    -0.047504813  
    811000   0.94132737     0.0047274609   0.8728794     -0.057988781  
    812000   0.98703171     0.0034849196   0.92045104    -0.055613644  
    813000   1.0382548      0.0040534296   0.96542805    -0.061290542  
    814000   0.97160677     0.0036285965   0.89119969    -0.069611446  
    815000   1.0634018      0.0040642667   0.96603792    -0.085548292  
    816000   1.0671927      0.0046756981   0.96607312    -0.089261908  
    817000   0.86764972     0.0031675127   0.78754852    -0.070460648  
    818000   0.92359815     0.0045114717   0.83896546    -0.074370488  
    819000   1.0434087      0.0049512435   0.94281229    -0.089002949  
    820000   1.0347179      0.0045608809   0.97151051    -0.051710494  
    821000   0.96074374     0.0042911538   0.8959471     -0.054121706  
    822000   1.013524       0.0044070773   0.93789536    -0.064367241  
    823000   1.0647498      0.0040028784   1.0066758     -0.046243483  
    824000   0.88689393     0.0034268005   0.84129797    -0.035741583  
    825000   1.058812       0.004222986    0.99398397    -0.0530635    
    826000   1.0262383      0.0049067158   0.95967548    -0.055160163  
    827000   0.89864699     0.0029909676   0.83339828    -0.055263745  
    828000   1.0076784      0.0036447726   0.93163408    -0.064847859  
    829000   1.0255499      0.0038757952   0.9537        -0.060454886  
    830000   0.96173308     0.00420818     0.90007047    -0.05097669   
    831000   0.91163442     0.0035102444   0.86390437    -0.037600778  
    832000   0.95968922     0.0043342706   0.92203048    -0.026995528  
    833000   1.0446241      0.0049019866   0.99956499    -0.033452211  
    834000   1.0379892      0.0045624456   0.98326723    -0.043188737  
    835000   0.95400827     0.0037492726   0.88277203    -0.06063615   
    836000   0.96756273     0.0041264393   0.89012878    -0.066683252  
    837000   1.0134396      0.0037451346   0.93493911    -0.067240081  
    838000   1.0210014      0.0047296772   0.95282185    -0.056835121  
    839000   1.0451385      0.0033259586   0.98334201    -0.05018384   
    840000   1.0288471      0.0041960276   0.95743609    -0.059979423  
    841000   0.9753108      0.004154665    0.91007783    -0.054396182  
    842000   1.0282982      0.0038805367   0.96837548    -0.048497196  
    843000   1.0802817      0.0041776616   0.99685934    -0.071419216  
    844000   0.97550356     0.0038138561   0.91986235    -0.044802279  
    845000   0.94617462     0.0038325624   0.89560366    -0.0400579    
    846000   1.0448345      0.0044307108   0.98654162    -0.046683622  
    847000   0.95880996     0.0035398435   0.90495191    -0.043204607  
    848000   1.0092259      0.0033921072   0.94441143    -0.053600859  
    849000   0.99921286     0.0035664638   0.93893969    -0.049170801  
    850000   1.0283774      0.0044597508   0.96504834    -0.051902646  
    851000   0.97345964     0.0041397642   0.90955813    -0.053085286  
    852000   0.93281778     0.0043604764   0.86740091    -0.055052235  
    853000   0.96967861     0.0033007253   0.90239461    -0.056509792  
    854000   0.99548449     0.0044021675   0.93146266    -0.052960896  
    855000   0.84865892     0.0043142641   0.80224449    -0.036984891  
    856000   1.0505384      0.004361973    0.98190489    -0.056960862  
    857000   1.0092375      0.0037418398   0.95601447    -0.042009226  
    858000   1.0229704      0.0046074074   0.9602764     -0.051327708  
    859000   1.0217119      0.0040127822   0.96893036    -0.041429202  
    860000   0.9819105      0.0046118989   0.92838152    -0.042618856  
    861000   1.003586       0.0029871813   0.95375489    -0.038680157  
    862000   1.0105728      0.0033600658   0.95626472    -0.043079492  
    863000   1.1411873      0.0053019029   1.0858834     -0.042624033  
    864000   1.0164428      0.0034207632   0.96084482    -0.044304155  
    865000   1.0238711      0.0036851779   0.97458199    -0.037912799  
    866000   1.0151451      0.0034849238   0.95222984    -0.051635873  
    867000   0.96852143     0.0037977912   0.90792199    -0.049838097  
    868000   0.98076452     0.0045183114   0.93040605    -0.039461086  
    869000   1.0057586      0.0040787887   0.96300334    -0.031580128  
    870000   1.0109657      0.0032279425   0.95944351    -0.040289253  
    871000   1.065327       0.004865566    0.99482718    -0.058662809  
    872000   0.94395767     0.0052888858   0.87048977    -0.062979477  
    873000   1.0389918      0.0038868867   0.97410977    -0.053337675  
    874000   1.0115387      0.004781125    0.94810533    -0.05219402   
    875000   0.94523864     0.0032237674   0.90477203    -0.029963957  
    876000   0.98687247     0.0035209719   0.9229512     -0.052956016  
    877000   1.0543815      0.0043795995   1.0048359     -0.037830289  
    878000   1.0101793      0.0039765769   0.98095912    -0.017995984  
    879000   0.99157446     0.003968037    0.94563129    -0.034925675  
    880000   0.96963448     0.0038490195   0.92109482    -0.037765951  
    881000   0.9539594      0.0033799451   0.90509641    -0.038263439  
    882000   1.0013614      0.0051277302   0.95360129    -0.036633906  
    883000   1.001362       0.0033897745   0.95563785    -0.034597946  
    884000   1.0393893      0.0034858175   0.99298337    -0.0348572    
    885000   1.0681169      0.0048963903   1.0274462     -0.028802747  
    886000   0.97481194     0.0046816993   0.93084545    -0.033135242  
    887000   1.0810819      0.0034404869   1.0368157     -0.032254192  
    888000   0.95505012     0.0043346123   0.90544793    -0.038990524  
    889000   1.1014178      0.0043891484   1.0446709     -0.044508953  
    890000   0.93893621     0.003553105    0.88559884    -0.042904743  
    891000   0.94957358     0.0048021921   0.90524089    -0.033781874  
    892000   1.0385357      0.004208475    1.0039527     -0.023043737  
    893000   0.95768308     0.0035754081   0.91573589    -0.031306262  
    894000   0.98907288     0.0034383437   0.95460761    -0.023475564  
    895000   0.89358557     0.0028177452   0.84220068    -0.041456159  
    896000   1.0756439      0.0036556233   1.0326322     -0.03106013   
    897000   0.98109127     0.0037764918   0.94648826    -0.023701992  
    898000   1.020341       0.0034696229   0.96252089    -0.046482964  
    899000   0.83906665     0.0031522226   0.79568614    -0.034057543  
    900000   1.017313       0.004808312    0.97265437    -0.033355164  
    901000   0.99978494     0.0035621474   0.94530067    -0.043375551  
    902000   0.94945154     0.0034714607   0.89298832    -0.045913763  
    903000   0.98795727     0.0032550139   0.94267918    -0.034300791  
    904000   0.9869093      0.0036566332   0.93112167    -0.044821974  
    905000   0.91373487     0.0045576198   0.86411537    -0.039466892  
    906000   1.0238615      0.0036181694   0.964087      -0.048398269  
    907000   1.016601       0.0031292265   0.95559225    -0.049713222  
    908000   1.0318972      0.0043717358   0.96507275    -0.055358899  
    909000   0.98010242     0.0050037899   0.93136743    -0.037844964  
    910000   1.0044264      0.0029798798   0.93971207    -0.053554029  
    911000   1.0743329      0.004113215    1.014596      -0.047799817  
    912000   1.1248611      0.0045891533   1.0540409     -0.058321669  
    913000   1.0224932      0.0044361126   0.94961169    -0.061520519  
    914000   1.0788112      0.0041639285   1.0099859     -0.056838481  
    915000   1.0214127      0.0049925275   0.9452236     -0.064840096  
    916000   1.0150686      0.0048429429   0.94557532    -0.058214764  
    917000   1.0354653      0.0041720185   0.97980486    -0.044155235  
    918000   0.89746897     0.0038773701   0.83173093    -0.055766159  
    919000   0.97202359     0.0031869869   0.89917855    -0.062044781  
    920000   0.97873395     0.0035793551   0.91653995    -0.051319172  
    921000   1.025359       0.0045746009   0.95684308    -0.057123084  
    922000   0.965945       0.0049640507   0.91723941    -0.037972868  
    923000   0.95939571     0.0035622843   0.88338807    -0.065347683  
    924000   0.95865846     0.0038330295   0.90201631    -0.045990384  
    925000   0.95602838     0.0037784068   0.87980867    -0.06559718   
    926000   0.94922992     0.0027709635   0.86445361    -0.07422931   
    927000   1.003569       0.0048030222   0.93781752    -0.054600688  
    928000   0.95690363     0.004564474    0.88653043    -0.059740943  
    929000   1.0791457      0.0043349548   1.0027887     -0.06436645   
    930000   0.97449479     0.0038772775   0.91906693    -0.044600142  
    931000   0.97770811     0.0037863133   0.92344158    -0.043403106  
    932000   1.1110686      0.0037419243   1.054796      -0.04392743   
    933000   1.0686848      0.0038980617   0.99296446    -0.063846077  
    934000   1.0089966      0.0044742469   0.93570132    -0.062084183  
    935000   0.98034339     0.0032007003   0.90466637    -0.064784315  
    936000   1.0816912      0.004704456    1.0157692     -0.053903184  
    937000   1.0450051      0.0043397778   0.9748515     -0.058542388  
    938000   1.0263677      0.0050085341   0.96914293    -0.045820656  
    939000   1.0284759      0.0044062911   0.95077665    -0.06627171   
    940000   0.98033014     0.0041171635   0.90176149    -0.067676098  
    941000   1.0065213      0.0040412701   0.93283247    -0.062505216  
    942000   1.0476851      0.0042154759   0.96895471    -0.067089403  
    943000   0.88042901     0.0032415571   0.79251085    -0.078135614  
    944000   1.0018071      0.0046474829   0.92688697    -0.063788898  
    945000   1.017254       0.0034161361   0.94788364    -0.058067548  
    946000   1.0944469      0.0047516334   1.021573      -0.060713345  
    947000   0.96667344     0.0026970566   0.88997226    -0.065960373  
    948000   1.0561773      0.0035198127   0.99066675    -0.053775231  
    949000   1.0521947      0.0032505046   0.98630494    -0.054198686  
    950000   1.0679444      0.0035631213   0.99016506    -0.065913283  
    951000   0.96443172     0.0034750299   0.91235365    -0.041362161  
    952000   1.0496171      0.0046174044   0.99257188    -0.045382791  
    953000   1.0198662      0.0040438177   0.95792648    -0.050607836  
    954000   1.0413543      0.0041383001   0.98893193    -0.040851767  
    955000   1.0338214      0.004695286    0.97962853    -0.042705939  
    956000   0.95316471     0.0040130663   0.89428327    -0.048290717  
    957000   0.96437483     0.0040031115   0.91242084    -0.041238711  
    958000   0.97823336     0.0041483857   0.93492572    -0.032438386  
    959000   1.0266495      0.004794103    0.98289715    -0.032345182  
    960000   0.99976043     0.003571021    0.95288259    -0.035769389  
    961000   1.030006       0.0044197264   0.9898079     -0.028753614  
    962000   1.0049838      0.003715676    0.95777695    -0.036040403  
    963000   0.99014602     0.0040557441   0.94489546    -0.034248939  
    964000   1.0372912      0.0038611535   0.99763429    -0.028131425  
    965000   1.0400869      0.0051645877   1.0003239     -0.028206455  
    966000   1.0472795      0.0037709831   1.0036175     -0.032025468  
    967000   1.0160113      0.0041081253   0.97996741    -0.024754878  
    968000   0.98549367     0.0046891576   0.95640635    -0.018137388  
    969000   1.0370279      0.0043637005   1.018753      -0.0067522739 
    970000   1.1336109      0.0052779701   1.1210152      0            
    971000   1.0445085      0.0047170761   1.023075      -0.009827871  
    972000   0.96026286     0.0035454332   0.92566405    -0.02392923   
    973000   1.1054563      0.0042741177   1.0696326     -0.023540839  
    974000   1.020673       0.0053216911   0.99283429    -0.016497928  
    975000   0.97019508     0.0045700315   0.94365396    -0.015761174  
    976000   1.0501254      0.0037509399   1.0146883     -0.023769044  
    977000   0.97310676     0.0045539175   0.94871618    -0.013578275  
    978000   0.96771592     0.0041163123   0.94686197    -0.010101557  
    979000   0.94605591     0.0037428202   0.92450407    -0.011040108  
    980000   0.96057868     0.0042892915   0.92714125    -0.02276433   
    981000   0.87322457     0.0034872485   0.85029446    -0.01322761   
    982000   1.0698933      0.0047137328   1.0243277     -0.033677964  
    983000   1.0051091      0.0038077968   0.96179736    -0.032143903  
    984000   0.99075353     0.0039618435   0.94669066    -0.033054497  
    985000   1.051746       0.0044061537   1.0106628     -0.029397112  
    986000   1.0588651      0.0044061182   1.0236104     -0.023489514  
    987000   1.0206413      0.0040652255   0.98872101    -0.020579813  
    988000   0.99198524     0.0047420559   0.94627955    -0.034683629  
    989000   1.0168189      0.0038720176   0.96633341    -0.039187545  
    990000   1.0191316      0.0041576904   0.96843304    -0.039374854  
    991000   0.90055609     0.0041798147   0.85667388    -0.033876032  
    992000   0.96172326     0.0041398071   0.91819289    -0.032844558  
    993000   1.0332673      0.0044885533   0.98819088    -0.033595626  
    994000   1.0057811      0.0041447908   0.9586828     -0.035922927  
    995000   1.0468725      0.0038665188   1.0127278     -0.022512715  
    996000   1.0427909      0.004139529    1.0093623     -0.021841974  
    997000   1.0072085      0.0044145419   0.97414794    -0.021869403  
    998000   1.0431905      0.0043241521   1.0084468     -0.023152662  
    999000   1.0259396      0.0030497094   0.98010409    -0.034436157  
   1000000   1.0049473      0.0053159052   0.98479789    -0.0089833318 
Loop time of 17.0035 on 1 procs for 1000000 steps with 405 atoms

Performance: 50813167.635 tau/day, 58811.537 timesteps/s
99.7% CPU use with 1 MPI tasks x no OpenMP threads

MPI task timing breakdown:
Section |  min time  |  avg time  |  max time  |%varavg| %total
---------------------------------------------------------------
Pair    | 0.87939    | 0.87939    | 0.87939    |   0.0 |  5.17
Bond    | 0.041117   | 0.041117   | 0.041117   |   0.0 |  0.24
Neigh   | 3.1782     | 3.1782     | 3.1782     |   0.0 | 18.69
Comm    | 0.82702    | 0.82702    | 0.82702    |   0.0 |  4.86
Output  | 0.31367    | 0.31367    | 0.31367    |   0.0 |  1.84
Modify  | 10.212     | 10.212     | 10.212     |   0.0 | 60.06
Other   |            | 1.553      |            |       |  9.13

Nlocal:            405 ave         405 max         405 min
Histogram: 1 0 0 0 0 0 0 0 0 0
Nghost:             61 ave          61 max          61 min
Histogram: 1 0 0 0 0 0 0 0 0 0
Neighs:              4 ave           4 max           4 min
Histogram: 1 0 0 0 0 0 0 0 0 0

Total # of neighbors = 4
Ave neighs/atom = 0.0098765432
Ave special neighs/atom = 0
Neighbor list builds = 212437
Dangerous builds = 0
Total wall time: 0:00:17
