fix fLANG all langevin 1.0 1.0 1.0 100
neigh_modify exclude molecule/intra all
fix rigidNVE linked_vesicle rigid/nve molecule
  1 rigid bodies with 5 atoms
fix NVE synapsin nve 1.0 1.0 1.0

    ##======================================##
    ## Output
    ##======================================##

thermo 1000
thermo_style custom step temp press etotal epair
thermo_modify flush yes
timestep 0.01

    ##======================================##
    ## Equilibration before output
    ##======================================##


    ##======================================##
    ## Run with output
    ##======================================##

fix enforce_2d all enforce2d
dump 2 all custom 1000 Results_eps_attr10_eps_rep1_range2_attr_with_repFalse_n_synapsin400_n_vesicles1/Movie_2d_eps_attr10_eps_rep1_range2_attr_with_repFalse_n_synapsin400_n_vesicles1.xyz id type mol x y z
run 1000000
Generated 0 of 3 mixed pair_coeff terms from geometric mixing rule
Neighbor list info ...
  update every 1 steps, delay 1 steps, check yes
  max neighbors/atom: 2000, page size: 100000
  master list distance cutoff = 11.52462
  ghost atom cutoff = 11.52462
  binsize = 5.7623102, bins = 55 55 1
  1 neighbor lists, perpetual/occasional/extra = 1 0 0
  (1) pair cosine/squared, perpetual
      attributes: half, newton on
      pair build: half/bin/newton
      stencil: half/bin/2d
      bin: standard
Per MPI rank memory allocation (min/avg/max) = 8.526 | 8.526 | 8.526 Mbytes
   Step          Temp          Press          TotEng         E_pair    
         0   0.99441908    -0.013071225    0.98336998     0            
      1000   1.052877       0.0040548885   1.0411809      2.5044906e-06
      2000   0.97902644     0.0030040622   0.96849889     0.00035052091
      3000   1.0601207      0.0035583022   1.0483416      0            
      4000   1.0466423      0.0043625821   1.0350129      0            
      5000   1.0005436      0.0035020426   0.98945454     2.8061539e-05
      6000   0.97028404     0.0030784247   0.95950311     0            
      7000   0.9429228      0.0035389451   0.9342467      0.001800821  
      8000   1.070792       0.0042930144   1.0588943      0            
      9000   1.099818       0.0040939823   1.0875978      0            
     10000   1.0716165      0.0046640274   1.0396411     -0.020068551  
     11000   0.96758513     0.0039226584   0.93218445    -0.024649734  
     12000   0.92839995     0.0040564137   0.89386317    -0.024221223  
     13000   0.96695252     0.0032661115   0.93187168    -0.02433692   
     14000   1.0490723      0.0052075339   0.9919328     -0.045483173  
     15000   0.9618786      0.0046726751   0.90651357    -0.04467749   
     16000   0.96320677     0.0044478625   0.90782626    -0.044678217  
     17000   1.0006813      0.0049119055   0.94784147    -0.041721164  
     18000   1.0832368      0.0043768945   1.0255871     -0.045613765  
     19000   0.98734873     0.0037488735   0.90569527    -0.070682924  
     20000   0.99759804     0.0042947633   0.91548304    -0.071030573  
     21000   0.96112606     0.0039518887   0.89250548    -0.057941401  
     22000   0.89398409     0.0035763945   0.83918908    -0.044861849  
     23000   0.90508459     0.0041480552   0.85181633    -0.043211765  
     24000   0.95778398     0.0051708928   0.9034052     -0.043736733  
     25000   0.96410114     0.0028633553   0.91323553    -0.040153372  
     26000   0.96429658     0.0041554263   0.90789915    -0.045683024  
     27000   1.0148163      0.002987406    0.95693493    -0.046605586  
     28000   1.0227828      0.0045545031   0.94288954    -0.068529037  
     29000   1.030305       0.0042412929   0.95251424    -0.066342949  
     30000   0.96455523     0.0036151836   0.88792054    -0.065917406  
     31000   1.0024224      0.0048519076   0.92165596    -0.069628406  
     32000   1.0524636      0.0049299736   0.9471152     -0.093654384  
     33000   1.0217133      0.0033251191   0.92215171    -0.088209181  
     34000   0.97179198     0.0030673124   0.87234079    -0.088653503  
     35000   1.0374019      0.0052894475   0.93692667    -0.0889485    
     36000   0.98697248     0.0040970647   0.89317027    -0.08283584   
     37000   1.0310271      0.0047549479   0.90106912    -0.11850208   
     38000   0.98653953     0.0039062497   0.86504713    -0.11053084   
     39000   0.90969946     0.0042954209   0.79035139    -0.1092403    
     40000   1.0479804      0.0046775277   0.91708715    -0.119249     
     41000   0.95454493     0.003695427    0.83008649    -0.11385239   
     42000   1.0342805      0.0046530726   0.91945807    -0.10333042   
     43000   0.99858665     0.0043842179   0.84379655    -0.1436947    
     44000   1.0395444      0.0052899238   0.89332074    -0.13467317   
     45000   1.0109214      0.0049767714   0.8583077     -0.14138127   
     46000   1.061833       0.0042362268   0.92277661    -0.12725827   
     47000   0.97907571     0.0045710449   0.82823053    -0.13996656   
     48000   1.067078       0.0051387918   0.90281803    -0.15240357   
     49000   1.0110975      0.0041016442   0.84284913    -0.15701395   
     50000   0.96898639     0.0036033407   0.80844291    -0.14977697   
     51000   1.0250723      0.0038098774   0.85411623    -0.15956636   
     52000   1.1133167      0.0040102598   0.93935393    -0.16159254   
     53000   1.0339443      0.0038926466   0.87364694    -0.14880905   
     54000   1.0540882      0.0037245626   0.8808296     -0.16154654   
     55000   0.98990639     0.002982789    0.79815198    -0.18075545   
     56000   1.0552831      0.0042507597   0.83942533    -0.20413237   
     57000   0.98327292     0.0053807509   0.78157196    -0.1907757    
     58000   0.97076926     0.0045305444   0.75903382    -0.20094912   
     59000   1.0050286      0.0037835751   0.79019756    -0.20366405   
     60000   0.98769603     0.0041172177   0.77966414    -0.19705748   
     61000   1.0403493      0.0040479504   0.85298914    -0.17580071   
     62000   1.0058826      0.0040090468   0.78525529    -0.20945088   
     63000   1.075036       0.0048961855   0.84116833    -0.22192281   
     64000   0.99528056     0.0046540848   0.75688013    -0.22734175   
     65000   1.0550285      0.0033149994   0.82978367    -0.21352234   
     66000   1.0446797      0.00378299     0.81309757    -0.21997453   
     67000   0.99604537     0.0036162554   0.76736574    -0.21761246   
     68000   1.0023636      0.0040530986   0.7628303     -0.22839596   
     69000   0.9858116      0.003302109    0.74527354    -0.22958459   
     70000   1.0442935      0.0040885672   0.81635193    -0.21633829   
     71000   0.98149135     0.0042920698   0.75042959    -0.2201563    
     72000   1.0402731      0.0043634656   0.80875521    -0.21995933   
     73000   0.95820299     0.0042680214   0.72588853    -0.22166776   
     74000   0.94734949     0.0053553175   0.70708821    -0.22973518   
     75000   1.0401039      0.005532185    0.81073879    -0.2178084    
     76000   1.0661427      0.0044535099   0.84313337    -0.21116326   
     77000   1.0477137      0.0034441324   0.80980145    -0.226271     
     78000   0.98443421     0.0048203212   0.74568247    -0.22781359   
     79000   1.024571       0.0047736247   0.77596109    -0.23722581   
     80000   1.0765233      0.0040286154   0.82942273    -0.2351392    
     81000   0.97792708     0.0037934792   0.72553777    -0.24152346   
     82000   1.02535        0.0045276908   0.7610603     -0.25289697   
     83000   1.0258404      0.0037054138   0.74242438    -0.27201781   
     84000   0.93981958     0.0040111864   0.66035171    -0.26902543   
     85000   0.93654369     0.0026287709   0.66234805    -0.2637896    
     86000   1.0168955      0.0035211352   0.74659591    -0.25900072   
     87000   0.96452034     0.0043087723   0.70116477    -0.25263868   
     88000   0.98679662     0.0030220663   0.72009595    -0.25573627   
     89000   0.98563036     0.004631405    0.70884632    -0.26583259   
     90000   0.98225403     0.0036375308   0.69702607    -0.27431403   
     91000   0.993065       0.0036811542   0.71521736    -0.26681358   
     92000   1.0173579      0.0043963843   0.7386843     -0.2673696    
     93000   1.0737476      0.0046993376   0.78879837    -0.27301873   
     94000   1.0214018      0.0040775945   0.75884427    -0.25120865   
     95000   1.0282723      0.0042081106   0.74399901    -0.27284802   
     96000   1.0409648      0.0051194422   0.78158418    -0.24781436   
     97000   0.94219408     0.0037980778   0.69731935    -0.23440591   
     98000   0.98262323     0.0029436839   0.71931184    -0.25239336   
     99000   0.96561275     0.0032226032   0.70780753    -0.24707619   
    100000   0.96618839     0.0028908827   0.71543251    -0.24002045   
    101000   1.1037057      0.0045097515   0.83874917    -0.25269309   
    102000   0.97250223     0.0033332343   0.7160499     -0.24564675   
    103000   1.0665828      0.0046301923   0.80238685    -0.25234502   
    104000   0.96857952     0.0039924013   0.71117277    -0.24664475   
    105000   0.98364703     0.0048496263   0.74831145    -0.22440617   
    106000   0.97830163     0.0038543927   0.73805018    -0.22938143   
    107000   1.0131729      0.0041370849   0.76089834    -0.24101711   
    108000   0.9560676      0.0041408157   0.70088343    -0.2445612    
    109000   0.98322206     0.0036499244   0.73037607    -0.2419213    
    110000   1.0498414      0.0047149864   0.80082326    -0.23735322   
    111000   1.0522499      0.0039883755   0.80164355    -0.23891464   
    112000   1.0253046      0.0036991584   0.7711011     -0.24281118   
    113000   1.027317       0.0037652488   0.77778614    -0.23811628   
    114000   1.0237023      0.0046053199   0.76985503    -0.24247276   
    115000   1.1269706      0.0040922401   0.86284404    -0.25160465   
    116000   1.0225795      0.0046069952   0.74230614    -0.2689114    
    117000   1.0148926      0.0035432254   0.74129572    -0.26232029   
    118000   1.0745186      0.0038959221   0.78993207    -0.27264741   
    119000   1.0675689      0.0037711506   0.7863215     -0.26938554   
    120000   1.0446183      0.0050839998   0.76712012    -0.26589132   
    121000   1.0715579      0.0055719082   0.81367427    -0.24597745   
    122000   0.98317903     0.0036967313   0.71063438    -0.26162043   
    123000   1.0595762      0.0044422275   0.77366637    -0.27413679   
    124000   0.94183586     0.0039856572   0.64792461    -0.28344641   
    125000   0.97467014     0.004530372    0.67454733    -0.28929314   
    126000   1.0209766      0.0043829187   0.71860216    -0.29103022   
    127000   1.0008809      0.0037017529   0.7118888     -0.27787123   
    128000   1.0720158      0.0043655369   0.7733621     -0.28674241   
    129000   1.0095265      0.0036079957   0.71004586    -0.2882637    
    130000   1.000757       0.0024640032   0.72953487    -0.26010264   
    131000   1.0087837      0.0034974194   0.71029779    -0.28727723   
    132000   0.95923985     0.0037016026   0.65795822    -0.29062341   
    133000   1.0183249      0.0040776952   0.72845792    -0.27855222   
    134000   1.0562231      0.0038078888   0.75864477    -0.28584256   
    135000   1.0486933      0.0042334724   0.76885603    -0.26818507   
    136000   0.88094257     0.0045821143   0.56153       -0.30962432   
    137000   0.9665694      0.0038845479   0.63630147    -0.31952827   
    138000   0.96615713     0.0043183808   0.63347688    -0.32194517   
    139000   0.97610826     0.0041806083   0.65878735    -0.30647527   
    140000   0.97202153     0.0039408721   0.65657788    -0.3046434    
    141000   0.98942748     0.0047954473   0.65738369    -0.32105016   
    142000   1.0404449      0.0034684965   0.7219577     -0.30692672   
    143000   0.9210631      0.0045236574   0.6037001     -0.30712897   
    144000   1.0414957      0.0051847235   0.72301988    -0.30690363   
    145000   0.92315785     0.0032521818   0.59585769    -0.31704286   
    146000   0.95619534     0.0037293081   0.62878648    -0.31678447   
    147000   1.0334922      0.0044776009   0.72717411    -0.29483488   
    148000   0.98323535     0.0036503003   0.6752449     -0.29706562   
    149000   0.93435326     0.0042396777   0.62033365    -0.30363791   
    150000   1.0228945      0.0037191442   0.70088274    -0.31064623   
    151000   0.96673888     0.0038676555   0.65516098    -0.30083636   
    152000   1.0675627      0.0048922468   0.74174636    -0.31395457   
    153000   0.99599076     0.0038299368   0.68002266    -0.30490153   
    154000   1.0536572      0.0043362885   0.72687739    -0.3150725    
    155000   1.1185508      0.003638633    0.80616566    -0.29995683   
    156000   1.1058784      0.004306355    0.79292975    -0.30066107   
    157000   0.95688781     0.0038691704   0.62711764    -0.31913807   
    158000   1.0368808      0.0042756374   0.72729369    -0.29806623   
    159000   0.9900954      0.0035111237   0.67843659    -0.30065776   
    160000   0.98532478     0.0030015225   0.66403401    -0.31034272   
    161000   0.94304886     0.0032942058   0.62533136    -0.30723919   
    162000   1.0592157      0.0044732411   0.73616538    -0.31128121   
    163000   1.0195743      0.0033552162   0.70857197    -0.29967371   
    164000   1.0324384      0.0046865578   0.70588759    -0.31507928   
    165000   1.0782708      0.0038751735   0.74683715    -0.31945284   
    166000   0.93027996     0.003926505    0.60827401    -0.3116695    
    167000   0.98446597     0.003865441    0.66836319    -0.30516427   
    168000   1.0690044      0.0046228448   0.7456544     -0.31147221   
    169000   1.0309083      0.0044462172   0.72006858    -0.29938523   
    170000   0.96653808     0.0048058887   0.65473024    -0.30106852   
    171000   0.99167706     0.0039066775   0.63575356    -0.34490487   
    172000   1.0687179      0.003965144    0.68726237    -0.36958086   
    173000   1.0118555      0.0045499132   0.66484573    -0.33576692   
    174000   1.031435       0.0027933289   0.6878161     -0.3321585    
    175000   1.0033755      0.0048453503   0.64541158    -0.3468153    
    176000   0.95331888     0.0038381433   0.59889616    -0.3438303    
    177000   0.96376524     0.0040312748   0.58478694    -0.3682698    
    178000   0.97802879     0.00394937     0.59078608    -0.37637572   
    179000   1.0075599      0.0036611276   0.60745262    -0.38891218   
    180000   0.99411092     0.003701601    0.5883162     -0.39474904   
    181000   0.96369239     0.0040547205   0.55304248    -0.39994223   
    182000   0.98783087     0.0039866703   0.57964107    -0.3972139    
    183000   1.0410253      0.0052941334   0.62773003    -0.40172829   
    184000   1.0272124      0.0032404753   0.64320274    -0.37259617   
    185000   1.0247286      0.0042016054   0.64247917    -0.37086358   
    186000   0.99196427     0.0053428899   0.58238641    -0.39855603   
    187000   0.98597451     0.0038677599   0.58964152    -0.38537771   
    188000   1.0615773      0.0051856344   0.61936184    -0.43042011   
    189000   0.913875       0.0043687311   0.48377234    -0.41994849   
    190000   1.0758008      0.0029325603   0.65720366    -0.40664383   
    191000   1.0645589      0.0030895308   0.6536989     -0.39903159   
    192000   1.0527982      0.0030934403   0.62960352    -0.41149688   
    193000   1.0077082      0.0042010582   0.59005679    -0.40645465   
    194000   0.9698781      0.0022895172   0.57788295    -0.38121872   
    195000   1.0167121      0.0045763871   0.59223099    -0.41318431   
    196000   1.0632887      0.004035937    0.6389059     -0.41256849   
    197000   0.97154522     0.0028166441   0.55475741    -0.40599287   
    198000   0.92171008     0.004476262    0.52422684    -0.38724202   
    199000   0.9725353      0.0038123849   0.54032469    -0.42140466   
    200000   0.97523163     0.0039837069   0.57265128    -0.39174444   
    201000   1.0017722      0.0034580239   0.60102393    -0.38961751   
    202000   1.0025873      0.0037157525   0.59408132    -0.39736608   
    203000   0.9734519      0.004518609    0.60178969    -0.36084608   
    204000   1.0059353      0.0047822076   0.61888656    -0.37587168   
    205000   0.96122568     0.0037689725   0.58506337    -0.36548202   
    206000   0.93383999     0.0035370137   0.52231456    -0.40114943   
    207000   1.0673945      0.0034180235   0.65906544    -0.39646913   
    208000   0.96764114     0.0039517502   0.56356287    -0.3933267    
    209000   1.036275       0.0049294806   0.61043554    -0.41432531   
    210000   0.99914488     0.0035868228   0.57269303    -0.41535025   
    211000   1.0256523      0.0043968672   0.6089988     -0.40525734   
    212000   0.95669622     0.0038204629   0.53532952    -0.41073674   
    213000   0.9732197      0.0038269468   0.55374689    -0.40865926   
    214000   1.0177019      0.0027972316   0.61549556    -0.3908985    
    215000   1.0113468      0.0030361026   0.61886969    -0.38123994   
    216000   0.98337643     0.0039478419   0.55998161    -0.41246841   
    217000   0.97757652     0.0050193224   0.55635035    -0.41036421   
    218000   1.0469414      0.0045477773   0.63912217    -0.39618656   
    219000   1.0090206      0.0037466292   0.58734731    -0.41046196   
    220000   1.0773797      0.0042553685   0.63912799    -0.42628083   
    221000   1.0947047      0.0049033382   0.69759516    -0.38494614   
    222000   1.0071428      0.0027387335   0.57705278    -0.41889952   
    223000   0.96535533     0.0032934974   0.54004109    -0.41458807   
    224000   0.99937824     0.0038779593   0.59033787    -0.39793617   
    225000   1.0430906      0.0045394513   0.64692791    -0.38457283   
    226000   0.95554749     0.002897885    0.53298207    -0.41194823   
    227000   1.062384       0.0052697183   0.62495856    -0.42562117   
    228000   1.0622771      0.0037445814   0.64225027    -0.40822377   
    229000   1.065583       0.0042431365   0.64010022    -0.41364301   
    230000   0.96536327     0.0050151377   0.53099289    -0.42364413   
    231000   1.0070215      0.0051124977   0.61651701    -0.37931539   
    232000   1.046409       0.0042337556   0.61469713    -0.4200851    
    233000   1.0167666      0.0044595053   0.58028151    -0.4251877    
    234000   0.91754842     0.0030520842   0.46102191    -0.44633153   
    235000   0.98866153     0.0046356933   0.54324372    -0.43443268   
    236000   1.0970565      0.0040276086   0.65056348    -0.43430348   
    237000   1.0814095      0.0050786467   0.63345414    -0.43593965   
    238000   0.98964354     0.0034355771   0.5748515     -0.40379601   
    239000   0.9140387      0.002556797    0.47617635    -0.42770636   
    240000   0.97990418     0.0027597817   0.53899201    -0.43002434   
    241000   0.89813032     0.0040009469   0.45404839    -0.43410271   
    242000   0.98084841     0.0040193267   0.55360089    -0.4163492    
    243000   0.92413964     0.0039688332   0.49593427    -0.41793715   
    244000   0.9470765      0.0040192151   0.50833272    -0.42822071   
    245000   0.94638284     0.0044956594   0.52338691    -0.41248056   
    246000   0.95249739     0.0032194961   0.51827398    -0.4236401    
    247000   1.0840762      0.0044824692   0.67581757    -0.39621332   
    248000   0.95730313     0.0042507862   0.52932644    -0.41733999   
    249000   1.0784642      0.0045131919   0.65203996    -0.41444125   
    250000   0.97081396     0.0037322013   0.55576847    -0.40425866   
    251000   0.93789112     0.004041268    0.53297505    -0.39449505   
    252000   0.94974319     0.003057519    0.51544823    -0.42374226   
    253000   1.0124142      0.0039523551   0.59591471    -0.40525041   
    254000   1.0140086      0.004326159    0.59092507    -0.41181677   
    255000   0.94343132     0.0020329064   0.49073607    -0.44221269   
    256000   0.95264105     0.0038435739   0.53651154    -0.40554461   
    257000   0.98086673     0.0042380396   0.56248466    -0.40748355   
    258000   0.98692417     0.0049878352   0.56521564    -0.41074271   
    259000   1.0123562      0.0041859292   0.57969435    -0.42141341   
    260000   0.92213875     0.0029086074   0.49660858    -0.41528419   
    261000   1.0087626      0.0032255137   0.56395812    -0.43359605   
    262000   0.95549973     0.0034695473   0.46494831    -0.47993475   
    263000   0.97569279     0.0035355759   0.4973932     -0.46745856   
    264000   0.98858076     0.003604678    0.53691473    -0.4406818    
    265000   1.0475066      0.0048012901   0.59787083    -0.43799677   
    266000   0.96965112     0.0030241741   0.51926228    -0.43961494   
    267000   0.95862673     0.0048159654   0.50321427    -0.44476106   
    268000   0.95441882     0.0035760257   0.47468591    -0.46912826   
    269000   0.94924205     0.0031479012   0.47718147    -0.46151345   
    270000   1.0523406      0.0035995732   0.57393966    -0.46670829   
    271000   1.0188373      0.004471922    0.52576232    -0.48175453   
    272000   0.94771254     0.0034182923   0.48632111    -0.45086128   
    273000   1.0366841      0.0034996708   0.56442965    -0.46073578   
    274000   1.0002782      0.0028254772   0.52160968    -0.46755434   
    275000   0.98604018     0.0037439439   0.52816941    -0.44691476   
    276000   1.0122305      0.0046289871   0.53203058    -0.46895289   
    277000   0.8859021      0.0028163052   0.40683972    -0.46921902   
    278000   1.0319812      0.0046642214   0.55493742    -0.46557736   
    279000   0.97872803     0.0034088962   0.51782045    -0.45003282   
    280000   1.0051972      0.0026643538   0.52283952    -0.47118887   
    281000   1.068335       0.0046541741   0.58321095    -0.47325367   
    282000   1.0407038      0.0041340463   0.55579457    -0.47334583   
    283000   0.93536614     0.0041084172   0.44840985    -0.47656333   
    284000   1.0316731      0.0024762489   0.54512852    -0.47508158   
    285000   1.0229055      0.0055822656   0.5302239     -0.48131603   
    286000   1.030379       0.0049507812   0.52440596    -0.49452439   
    287000   1.0068597      0.0041277525   0.53075727    -0.46491506   
    288000   0.95725094     0.0033738276   0.46701591    -0.47959891   
    289000   0.96736356     0.0029003409   0.45697068    -0.49964439   
    290000   0.98625799     0.0038051746   0.48171945    -0.49358012   
    291000   0.9627656      0.0040573941   0.45055376    -0.50151444   
    292000   0.9821239      0.0041163264   0.46928869    -0.50192272   
    293000   0.96044397     0.0028997896   0.44880578    -0.50096659   
    294000   0.965823       0.0025869459   0.47467285    -0.48041878   
    295000   1.0569204      0.0060088348   0.56623943    -0.47893738   
    296000   0.8953698      0.0024176752   0.41170796    -0.47371329   
    297000   1.0170085      0.0040902598   0.53948051    -0.46622791   
    298000   1.066242       0.0047363011   0.5590135     -0.4953814    
    299000   0.96626694     0.003968586    0.48368674    -0.4718439    
    300000   0.99402354     0.0040885565   0.48649864    -0.4964802    
    301000   1.0100778      0.0039875098   0.50695361    -0.4919011    
    302000   1.0265733      0.0049319434   0.54432653    -0.47084041   
    303000   0.99356979     0.0037003197   0.49741556    -0.48511457   
    304000   0.97962718     0.0037416182   0.50422372    -0.46451871   
    305000   1.011935       0.0032026577   0.51941044    -0.48128086   
    306000   1.0007673      0.0042933312   0.51534805    -0.47429962   
    307000   1.0306712      0.0034822851   0.5598757     -0.45934361   
    308000   0.98372918     0.0013401578   0.48112478    -0.49167408   
    309000   0.91334702     0.0044441856   0.4000545     -0.50314422   
    310000   1.0098986      0.0044486573   0.49461684    -0.5040607    
    311000   1.0065382      0.0027349196   0.48142365    -0.51393078   
    312000   1.0134302      0.0020884067   0.52308125    -0.47908864   
    313000   0.98492022     0.0038836347   0.46821179    -0.50576487   
    314000   0.94206369     0.0031504884   0.4314912     -0.50010512   
    315000   1.0435325      0.0045647821   0.56193904    -0.46999863   
    316000   0.93690106     0.0033070561   0.45928372    -0.46720733   
    317000   0.9744626      0.0033841261   0.48073384    -0.48290141   
    318000   1.0584231      0.004777451    0.56569721    -0.4809656    
    319000   1.0413445      0.0044279535   0.53916046    -0.49061354   
    320000   0.97721161     0.0040569417   0.4724504     -0.49390331   
    321000   0.9392625      0.0031524405   0.4333399     -0.49548635   
    322000   1.0258651      0.0055380485   0.54265882    -0.47180783   
    323000   1.0881392      0.0039899637   0.58787018    -0.48817856   
    324000   0.93872694     0.0035776057   0.43617558    -0.49212106   
    325000   0.9946038      0.0026294583   0.48253245    -0.5010202    
    326000   1.0581712      0.0045066148   0.56513662    -0.48127714   
    327000   1.0546807      0.0040291994   0.55236257    -0.49059947   
    328000   1.0463196      0.0035717568   0.56339622    -0.4712976    
    329000   0.97786345     0.004218272    0.44784805    -0.51915025   
    330000   1.0750626      0.0042158374   0.55004691    -0.51307052   
    331000   1.0189251      0.0040421584   0.50034935    -0.50725439   
    332000   1.0566645      0.0037333381   0.5669014     -0.47802238   
    333000   1.0124811      0.0040970296   0.4983298     -0.50290155   
    334000   1.0122488      0.0021804517   0.52303035    -0.47797129   
    335000   0.9523074      0.0030967396   0.43392412    -0.50780208   
    336000   1.0361878      0.0031127468   0.5167169     -0.50795775   
    337000   1.0273589      0.0039571596   0.51070501    -0.50523883   
    338000   1.038849       0.0037154392   0.51118249    -0.5161237    
    339000   1.0531706      0.00559691     0.5193964     -0.52207229   
    340000   1.0283659      0.0053779727   0.47454376    -0.54239585   
    341000   0.95107478     0.0032406609   0.40552212    -0.53498517   
    342000   0.95170146     0.0043314424   0.40963021    -0.53149679   
    343000   1.0332185      0.0033838392   0.50491198    -0.51682633   
    344000   1.066081       0.0035077034   0.5776721     -0.47656352   
    345000   0.96206628     0.0032956814   0.43924115    -0.5121355    
    346000   0.99305829     0.0044898734   0.46567348    -0.51635083   
    347000   1.0857375      0.0033617032   0.51695608    -0.55671769   
    348000   1.0135221      0.0032896834   0.45438752    -0.5478732    
    349000   1.0018721      0.0036064563   0.44048989    -0.55025034   
    350000   0.88770432     0.0016724534   0.32457261    -0.55326832   
    351000   0.94908518     0.0034866664   0.3968791     -0.54166069   
    352000   1.0818501      0.003746881    0.53758245    -0.53224709   
    353000   1.0126305      0.0052232425   0.44311365    -0.55826539   
    354000   0.91547522     0.0024555536   0.37953595    -0.52576733   
    355000   0.99217765     0.0036934594   0.43343378    -0.54771967   
    356000   0.9968349      0.0024362824   0.45959208    -0.52616688   
    357000   1.0238397      0.0031248839   0.47286335    -0.53960033   
    358000   0.92941495     0.0043286527   0.36523818    -0.55384994   
    359000   0.99219144     0.0041515884   0.444669      -0.53649809   
    360000   0.97835225     0.0034823581   0.41807511    -0.54940656   
    361000   1.0575133      0.0024213435   0.52371092    -0.52205222   
    362000   1.0657315      0.0044798038   0.5474269     -0.50646318   
    363000   1.0029287      0.0028999091   0.48647356    -0.50531144   
    364000   0.96106899     0.0039563369   0.46243115    -0.48795929   
    365000   0.97941875     0.0049144332   0.46616849    -0.50236783   
    366000   1.0133719      0.0041981838   0.49112616    -0.51098607   
    367000   1.0240429      0.0034275914   0.44865758    -0.5640071    
    368000   0.95809524     0.0032668406   0.38765345    -0.55979629   
    369000   0.88915669     0.0032043754   0.30552248    -0.57375469   
    370000   1.0040501      0.0036897967   0.43060473    -0.56228923   
    371000   1.0307638      0.0047273552   0.48584487    -0.53346603   
    372000   1.0370783      0.0045747281   0.49014152    -0.53541367   
    373000   0.97916107     0.0046850486   0.4340466     -0.53423491   
    374000   0.9798451      0.0032581328   0.39491777    -0.57404016   
    375000   1.026091       0.0046196425   0.445652      -0.569038     
    376000   0.95583248     0.0039853521   0.40396323    -0.54124889   
    377000   0.961962       0.0028699627   0.33965978    -0.61161375   
    378000   1.0394772      0.0036937299   0.45350203    -0.57442539   
    379000   1.0066818      0.0041792916   0.40730136    -0.58819512   
    380000   0.96692792     0.0049001819   0.38310699    -0.57307729   
    381000   0.98634531     0.0043287446   0.38932469    -0.58606122   
    382000   1.0146158      0.004479098    0.47036091    -0.53298139   
    383000   1.0404942      0.0039991012   0.50596071    -0.5229724    
    384000   1.0167227      0.0038348959   0.47818986    -0.52723591   
    385000   0.99672631     0.0034576757   0.45286366    -0.53278791   
    386000   1.0373408      0.0037538281   0.46200692    -0.56380792   
    387000   0.92681165     0.0025944233   0.37113837    -0.54537537   
    388000   0.97903456     0.0029804581   0.39153519    -0.5766212    
    389000   1.0277067      0.0034676043   0.45010102    -0.56618672   
    390000   1.0470931      0.0040110357   0.45942467    -0.57603405   
    391000   1.1128888      0.0027334135   0.50627502    -0.59424832   
    392000   1.0190926      0.002277914    0.43040032    -0.57736904   
    393000   1.024491       0.003163087    0.42023097    -0.59287684   
    394000   1.0489809      0.0038783647   0.44616126    -0.59116432   
    395000   1.040154       0.0040281324   0.40433036    -0.6242664    
    396000   0.94724766     0.003658088    0.30995028    -0.62677241   
    397000   0.98768766     0.0039301615   0.37004329    -0.60667006   
    398000   0.96157243     0.0037208664   0.33290519    -0.6179831    
    399000   0.88020264     0.0028804184   0.278903      -0.59151961   
    400000   1.092017       0.0038856705   0.4679972     -0.61188625   
    401000   1.0105989      0.0056911279   0.40485862    -0.59451143   
    402000   0.93869891     0.002418747    0.31282411    -0.61544482   
    403000   1.0215923      0.0035305663   0.41048817    -0.59975309   
    404000   0.99682129     0.0042242036   0.35384231    -0.63190318   
    405000   1.0836844      0.0027540427   0.41430308    -0.6573404    
    406000   1.0083157      0.0037731625   0.36929255    -0.62781968   
    407000   1.0003889      0.0026621591   0.34760194    -0.64167156   
    408000   1.0079978      0.0041895323   0.35803829    -0.63875949   
    409000   1.1032054      0.0033099788   0.46084635    -0.63010117   
    410000   0.99931937     0.0044735168   0.36037812    -0.6278377    
    411000   0.94389565     0.0033499233   0.32884751    -0.60456041   
    412000   0.97890142     0.004330798    0.33623061    -0.63179412   
    413000   1.0601608      0.0043987344   0.43894748    -0.60943372   
    414000   0.95952014     0.0041606105   0.32652277    -0.62233604   
    415000   0.98334436     0.003316481    0.2969958     -0.67542251   
    416000   1.0460283      0.0045200668   0.37966218    -0.65474361   
    417000   0.93279727     0.0025605674   0.25314547    -0.66928739   
    418000   1.0255588      0.0035004608   0.33977427    -0.67438942   
    419000   0.90852967     0.0036731504   0.26513907    -0.63329583   
    420000   0.99394868     0.0031730313   0.30730351    -0.6756013    
    421000   1.0416798      0.0030827179   0.36142078    -0.66868484   
    422000   1.0196881      0.0032994308   0.35206796    -0.65629027   
    423000   0.9878407      0.0029630584   0.28919824    -0.68766645   
    424000   0.96635446     0.004441937    0.26997187    -0.68564532   
    425000   1.0228036      0.003829764    0.30861516    -0.70282394   
    426000   1.0434064      0.0046919073   0.37259303    -0.65922      
    427000   0.92479215     0.0037562273   0.22478179    -0.6897349    
    428000   1.0253712      0.0040435573   0.34073759    -0.67324063   
    429000   0.8907889      0.0026141274   0.22437476    -0.65651648   
    430000   0.96684528     0.0031304008   0.33810416    -0.61799839   
    431000   0.97584733     0.0038545415   0.30925647    -0.65574811   
    432000   1.0481999      0.0047904045   0.38079106    -0.65576221   
    433000   0.91047879     0.0039205247   0.22968831    -0.67067405   
    434000   0.97102275     0.0040890776   0.32647821    -0.6337554    
    435000   1.0397957      0.0035771482   0.38611464    -0.64212775   
    436000   0.99009848     0.00398718     0.34251       -0.63658738   
    437000   1.0288798      0.0026438694   0.40755689    -0.60989089   
    438000   0.91469398     0.0038132695   0.27217413    -0.63235658   
    439000   1.0395254      0.0034425061   0.41241673    -0.61555838   
    440000   1.0000513      0.0039008653   0.33221142    -0.65672821   
    441000   0.97265022     0.0045585802   0.33757801    -0.62426499   
    442000   0.97878899     0.0039804634   0.34039232    -0.62752124   
    443000   1.0570527      0.0048763178   0.42435883    -0.62094884   
    444000   0.93691911     0.0047559527   0.28106525    -0.64544365   
    445000   0.9728057      0.003889189    0.30582725    -0.6561695    
    446000   0.99762384     0.0052170086   0.29650405    -0.69003508   
    447000   1.0280182      0.0040148559   0.33383859    -0.6827572    
    448000   0.91651348     0.0034607846   0.23459665    -0.67173335   
    449000   0.920353       0.004016239    0.22339289    -0.68673397   
    450000   1.0081715      0.0043010256   0.28346305    -0.71350656   
    451000   0.9389273      0.004128605    0.23326544    -0.69522933   
    452000   1.0669681      0.0047950923   0.39898536    -0.65612753   
    453000   1.0537138      0.0044733401   0.37938036    -0.66262546   
    454000   0.96613642     0.0041683821   0.28588276    -0.66951881   
    455000   0.97325936     0.0034459897   0.29040673    -0.67203864   
    456000   0.96594797     0.0043391167   0.27332268    -0.68189253   
    457000   1.076184       0.0041369589   0.39185052    -0.67237586   
    458000   0.99743878     0.0034250662   0.29399596    -0.69236016   
    459000   0.98297644     0.0039992738   0.301356      -0.67069848   
    460000   0.91490406     0.0030040337   0.21294216    -0.6917963    
    461000   1.0754709      0.0035155119   0.37783982    -0.6856814    
    462000   0.9426224      0.0042054188   0.2613775     -0.67077132   
    463000   0.96281453     0.0034975227   0.28987954    -0.66223706   
    464000   0.94610645     0.0026143895   0.26051093    -0.67508322   
    465000   0.99985053     0.0031428011   0.30101035    -0.68773073   
    466000   0.97388594     0.0023118882   0.27304383    -0.69002116   
    467000   0.97882381     0.0035436142   0.29264628    -0.67530171   
    468000   1.0192422      0.0033452447   0.39489104    -0.61302627   
    469000   1.0814933      0.0031865511   0.41086811    -0.65860865   
    470000   0.99112666     0.0025206771   0.30561699    -0.67449714   
    471000   0.99251066     0.0041797315   0.28024266    -0.7012401    
    472000   1.0320924      0.0027813817   0.35365069    -0.66697401   
    473000   1.083989       0.0037277691   0.39455082    -0.67739389   
    474000   1.0611566      0.0039388814   0.40639611    -0.64296981   
    475000   1.0134097      0.0051127136   0.32268081    -0.67946875   
    476000   1.0052462      0.0041475831   0.32558035    -0.66849647   
    477000   1.0813033      0.0049362438   0.3543239     -0.71496494   
    478000   0.9500747      0.0031556328   0.23159311    -0.7079252    
    479000   1.0059922      0.0035489506   0.2475649     -0.74724965   
    480000   1.0072815      0.0044689909   0.24634469    -0.74974481   
    481000   1.0115661      0.0035182351   0.27030371    -0.73002276   
    482000   1.0908662      0.0036017016   0.34037389    -0.73837153   
    483000   0.94373808     0.0046782596   0.20667185    -0.72658025   
    484000   1.0405477      0.0058442673   0.28724963    -0.74173644   
    485000   0.9932554      0.0034653869   0.24282012    -0.73939911   
    486000   0.99063264     0.0048526617   0.26484561    -0.71478001   
    487000   0.99784201     0.0035803928   0.23719406    -0.74956081   
    488000   0.95026313     0.0034989328   0.21426444    -0.72544022   
    489000   0.99750354     0.0031912958   0.23192894    -0.75449123   
    490000   1.0432068      0.0039695519   0.30214785    -0.72946778   
    491000   1.0152189      0.0036133643   0.24724318    -0.75669552   
    492000   0.98452104     0.0024428006   0.20186207    -0.77171984   
    493000   0.99774698     0.0042478214   0.26981261    -0.71684829   
    494000   0.98443254     0.0024473717   0.24437012    -0.72912428   
    495000   0.9543765      0.0044925924   0.19467177    -0.74910054   
    496000   0.93899119     0.004801047    0.16121863    -0.76733932   
    497000   1.0202889      0.0028610372   0.25169947    -0.75725285   
    498000   1.0254962      0.0036078885   0.25512934    -0.75897243   
    499000   1.0486465      0.0036631961   0.30549025    -0.73150462   
    500000   0.98705444     0.0031990578   0.25223919    -0.72384798   
    501000   1.0453701      0.0040029189   0.31932627    -0.71442858   
    502000   1.0336326      0.0030944667   0.30458896    -0.71755879   
    503000   1.0114326      0.002720368    0.25665339    -0.74354102   
    504000   1.0000882      0.0031842625   0.24793673    -0.74103937   
    505000   0.95576825     0.0024329111   0.21387637    -0.73127223   
    506000   1.006429       0.0030957878   0.23260516    -0.76264132   
    507000   1.0451304      0.0056300392   0.29145909    -0.74205871   
    508000   0.99740482     0.0031560774   0.19242486    -0.79389769   
    509000   1.0208277      0.0040810101   0.24368452    -0.76580066   
    510000   1.0596851      0.0039306346   0.30862631    -0.73928454   
    511000   1.0366304      0.0035521087   0.24625382    -0.7788585    
    512000   1.0585518      0.0036968336   0.27247149    -0.77431861   
    513000   1.0436656      0.0048180428   0.30908118    -0.72298811   
    514000   1.0743104      0.0033229571   0.31084266    -0.75153098   
    515000   1.0262718      0.0039913205   0.23868565    -0.77618309   
    516000   1.0050127      0.0041284054   0.30028772    -0.69355813   
    517000   1.0112225      0.0040541957   0.23403441    -0.76595226   
    518000   0.99521032     0.0028517684   0.26915007    -0.71500236   
    519000   0.95944278     0.0036661293   0.18999846    -0.75878385   
    520000   1.0869895      0.0057687417   0.33098813    -0.7439237    
    521000   0.91603298     0.0029850747   0.15790479    -0.74795005   
    522000   0.92776298     0.0024053095   0.15496928    -0.76248522   
    523000   1.0507152      0.0028148612   0.26711766    -0.77192298   
    524000   1.0863919      0.004016048    0.2988902     -0.77543066   
    525000   0.9293933      0.0038017313   0.18815938    -0.73090733   
    526000   1.006407       0.0030290375   0.2687246     -0.72650011   
    527000   1.0480171      0.0034548851   0.3337013     -0.70267114   
    528000   1.0097685      0.0032503462   0.27660628    -0.72194259   
    529000   0.94210662     0.0035278107   0.20244908    -0.72918968   
    530000   0.96417964     0.0032767158   0.20819515    -0.74527139   
    531000   0.99819323     0.0045078349   0.23981808    -0.7472841    
    532000   0.98503998     0.0030616806   0.25114234    -0.72295275   
    533000   0.9965808      0.0038435543   0.28270572    -0.70280196   
    534000   0.91734886     0.0023998891   0.21235284    -0.69480325   
    535000   1.0597605      0.0028670572   0.32996372    -0.71802162   
    536000   1.0011271      0.0049385621   0.27021872    -0.71978475   
    537000   1.0445001      0.0036816365   0.29090545    -0.74198913   
    538000   1.0492619      0.0041052408   0.32145441    -0.71614906   
    539000   0.98529392     0.0046774913   0.25687054    -0.71747567   
    540000   1.0429234      0.0034462028   0.30149304    -0.72984229   
    541000   1.0597249      0.0037123368   0.33444277    -0.71350738   
    542000   1.0339291      0.0028094476   0.33823213    -0.68420885   
    543000   1.0576163      0.004880332    0.34138815    -0.70447685   
    544000   0.97811361     0.0042976145   0.24824567    -0.71900001   
    545000   1.0133338      0.0028939237   0.28567668    -0.71639781   
    546000   0.97195773     0.0028681501   0.25295569    -0.70820251   
    547000   0.99850751     0.0035068274   0.30095206    -0.68646093   
    548000   1.072324       0.0061432329   0.39054193    -0.66986736   
    549000   1.0317381      0.0042585859   0.2991817     -0.72109268   
    550000   1.0921856      0.0043207314   0.36131359    -0.71873666   
    551000   0.96096986     0.0035458115   0.24026326    -0.71002916   
    552000   0.9439367      0.0044033355   0.2278652     -0.70558332   
    553000   1.0856958      0.0035983979   0.36886886    -0.70476365   
    554000   0.9907656      0.0025969349   0.27778846    -0.70196864   
    555000   1.0128733      0.0030086888   0.29384727    -0.7077719    
    556000   1.0227959      0.0032728328   0.31941863    -0.69201283   
    557000   1.0799027      0.0045272356   0.39440602    -0.67349776   
    558000   0.9608015      0.0029650361   0.26344221    -0.68668372   
    559000   0.99163134     0.003451445    0.27880083    -0.70181238   
    560000   1.0256436      0.0055511232   0.35377742    -0.6604701    
    561000   1.0104278      0.0034771608   0.29439897    -0.70480182   
    562000   1.0056073      0.004312892    0.25891888    -0.73551502   
    563000   0.99528255     0.0046287648   0.28404387    -0.70017999   
    564000   1.0932067      0.0039088936   0.34412937    -0.73693061   
    565000   0.98066102     0.0028949418   0.28049768    -0.68926711   
    566000   1.0459258      0.0045002901   0.34665162    -0.68765277   
    567000   0.92933264     0.0036229254   0.21623071    -0.70277602   
    568000   0.94484051     0.0024611238   0.25930245    -0.67503983   
    569000   0.97999109     0.0034599809   0.26915922    -0.69994308   
    570000   1.0443207      0.0044804527   0.35284593    -0.67987123   
    571000   1.019787       0.0036400566   0.34519651    -0.66325956   
    572000   0.99576523     0.0037996737   0.30359044    -0.68111073   
    573000   1.0133265      0.0036989554   0.30977399    -0.6922933    
    574000   1.0369808      0.0029002481   0.33372195    -0.69173687   
    575000   1.075406       0.0039455458   0.39242016    -0.67103685   
    576000   0.9928501      0.0025109453   0.30320929    -0.67860914   
    577000   1.026706       0.0056745496   0.34465432    -0.67064379   
    578000   0.97736687     0.0027880978   0.30185001    -0.66465722   
    579000   0.9265257      0.0035673411   0.22727837    -0.68895259   
    580000   0.84286756     0.0030800052   0.17446126    -0.65904111   
    581000   1.0241209      0.0040615819   0.32799373    -0.68474802   
    582000   1.1002609      0.0046786359   0.34224065    -0.74579514   
    583000   1.0482688      0.004619007    0.29677211    -0.73984923   
    584000   0.96147166     0.0040688427   0.2690954     -0.68169324   
    585000   0.85171758     0.0040498611   0.11333411    -0.72891995   
    586000   1.0246976      0.0040010782   0.32648347    -0.68682856   
    587000   1.0638372      0.0030271925   0.32417562    -0.72784117   
    588000   1.0249288      0.0048169371   0.31198695    -0.70155373   
    589000   1.0666325      0.0023884841   0.32544296    -0.72933809   
    590000   0.98717119     0.0041144778   0.24258133    -0.73362129   
    591000   1.1012341      0.0042375054   0.32789316    -0.761105     
    592000   0.8540038      0.0045835312   0.13555347    -0.70896139   
    593000   1.0552772      0.0030410118   0.30998593    -0.73356597   
    594000   0.99394673     0.0035000927   0.23847568    -0.7444272    
    595000   0.95076547     0.0042011638   0.19843703    -0.74176438   
    596000   1.0298136      0.0032746944   0.26015705    -0.75821417   
    597000   0.9997537      0.0031989276   0.26859367    -0.72005165   
    598000   1.0275803      0.0053070112   0.27758803    -0.73857471   
    599000   0.9863946      0.0034500111   0.23395789    -0.74147677   
    600000   1.1246741      0.002781963    0.37687997    -0.73529774   
    601000   0.98262002     0.0032506866   0.24365936    -0.72804267   
    602000   0.99391203     0.0034599503   0.24970786    -0.7331607    
    603000   1.006827       0.0046329281   0.29910385    -0.69653614   
    604000   0.92695163     0.001692214    0.24071951    -0.67593266   
    605000   0.97730218     0.0055282396   0.25340442    -0.71303885   
    606000   1.0078716      0.0034129566   0.30549915    -0.69117387   
    607000   0.98573248     0.003343498    0.29666265    -0.67811724   
    608000   1.0392975      0.0037172546   0.35197463    -0.67577509   
    609000   0.97224747     0.0045111838   0.27153967    -0.68990505   
    610000   0.99041442     0.0035537155   0.29326215    -0.68614767   
    611000   0.93803947     0.0036028236   0.22082314    -0.70679367   
    612000   1.0049407      0.0033688245   0.26620326    -0.72757144   
    613000   0.97509774     0.0047716523   0.24072826    -0.72353506   
    614000   0.99484177     0.0030876347   0.28770456    -0.69608341   
    615000   1.0953648      0.0038387679   0.37027983    -0.71291427   
    616000   1.0357649      0.0044431378   0.3211402     -0.70311622   
    617000   0.9779745      0.0030052372   0.23992671    -0.72718141   
    618000   1.0391254      0.004489981    0.34395731    -0.68362222   
    619000   1.0989306      0.0036516728   0.41904348    -0.66767674   
    620000   0.98540293     0.0048863838   0.29242387    -0.68203014   
    621000   0.96834995     0.0043306757   0.26891372    -0.68867679   
    622000   0.91282163     0.0033171897   0.23636264    -0.66631652   
    623000   0.94809814     0.0034837468   0.25756125    -0.68000247   
    624000   1.0378853      0.0032389332   0.34256689    -0.68378633   
    625000   0.96808961     0.0040576576   0.27993485    -0.6773982    
    626000   1.0115434      0.0035842685   0.29074169    -0.70956235   
    627000   1.0227769      0.0026491928   0.26727316    -0.74413953   
    628000   1.0375224      0.0053310402   0.27982483    -0.74616957   
    629000   0.97377426     0.0024048761   0.22596077    -0.73699377   
    630000   1.0517415      0.0037969335   0.32267428    -0.71738122   
    631000   0.96969858     0.0052364245   0.24914672    -0.70977744   
    632000   1.015391       0.0026175816   0.27587967    -0.72822925   
    633000   1.0215275      0.0031591031   0.29020028    -0.71997694   
    634000   1.0105564      0.0027708472   0.28280754    -0.71652049   
    635000   1.0061552      0.0038741141   0.30935106    -0.68562464   
    636000   1.0309488      0.0042172441   0.30483779    -0.71465598   
    637000   1.020883       0.0035917711   0.31862771    -0.69091219   
    638000   1.0164146      0.0036868466   0.30907134    -0.6960498    
    639000   1.0417825      0.0036528527   0.33546478    -0.69474236   
    640000   0.94725645     0.0035299697   0.24130667    -0.6954247    
    641000   1.0671335      0.0050328147   0.31383517    -0.74144131   
    642000   0.9085258      0.0035909371   0.16321294    -0.73521813   
    643000   0.99616054     0.0040895862   0.2041684     -0.78092369   
    644000   0.96852662     0.0037370469   0.19939658    -0.75836864   
    645000   0.97628626     0.0044039292   0.23216426    -0.73327437   
    646000   0.99809089     0.0028773413   0.26581931    -0.72118168   
    647000   1.0290638      0.0056405637   0.28001062    -0.73761916   
    648000   0.99419674     0.0047209711   0.27089621    -0.7122539    
    649000   0.98124202     0.0042072978   0.23431032    -0.73602901   
    650000   1.0115118      0.0031074981   0.27370914    -0.7265636    
    651000   0.92954742     0.0043634134   0.15745946    -0.76175966   
    652000   1.0678647      0.0037927119   0.2759677     -0.78003184   
    653000   1.0281124      0.0036058024   0.23682122    -0.77986775   
    654000   1.0793257      0.0050477249   0.29479625    -0.77253693   
    655000   1.0144321      0.0028514323   0.22991555    -0.77324512   
    656000   1.0039617      0.0029254618   0.23362347    -0.75918307   
    657000   1.0114224      0.0029764034   0.26031334    -0.73987108   
    658000   0.97398483     0.0036447638   0.26563233    -0.69753045   
    659000   1.0869109      0.003270875    0.30622078    -0.76861337   
    660000   1.0671798      0.0041705361   0.29613662    -0.75918564   
    661000   1.0947089      0.0065814496   0.33169215    -0.7508533    
    662000   1.0490574      0.0037502843   0.30211616    -0.73528504   
    663000   1.0434808      0.0047953265   0.29079732    -0.74108923   
    664000   0.92710512     0.0041858495   0.176356      -0.74044795   
    665000   0.98946481     0.0018780491   0.24996431    -0.72850645   
    666000   1.0052515      0.004511103    0.27838575    -0.71569633   
    667000   0.98530554     0.00333628     0.30307553    -0.67128217   
    668000   0.95920945     0.0040823745   0.23322609    -0.71532548   
    669000   1.0859565      0.0035348062   0.40164086    -0.67224946   
    670000   1.0633703      0.0030411486   0.36315126    -0.68840383   
    671000   0.99360491     0.0042656212   0.29716007    -0.68540479   
    672000   0.93500945     0.0037769045   0.25570583    -0.66891462   
    673000   0.93515657     0.0027788005   0.20629349    -0.71847245   
    674000   1.0220545      0.0036900467   0.32977351    -0.68092486   
    675000   1.072566       0.0045595915   0.34501989    -0.71562876   
    676000   1.0458907      0.0043381107   0.32758609    -0.70668363   
    677000   0.9277653      0.0046304874   0.25552307    -0.66193372   
    678000   1.0140383      0.0028078739   0.28633567    -0.71643549   
    679000   0.99437849     0.0039428715   0.27192125    -0.71140859   
    680000   1.0130601      0.0045993541   0.27711043    -0.72469342   
    681000   1.0533342      0.0042942182   0.31172872    -0.72990172   
    682000   0.97845832     0.0031858169   0.25733789    -0.71024867   
    683000   1.0037424      0.0034229349   0.29883469    -0.69375503   
    684000   0.94914147     0.00204072     0.22197469    -0.71662076   
    685000   1.0571552      0.0029861755   0.34247487    -0.70293414   
    686000   1.0599586      0.0027005159   0.36313901    -0.68504225   
    687000   0.97829265     0.0033096239   0.2997353     -0.66768743   
    688000   0.98539163     0.0053382514   0.26276034    -0.7116825    
    689000   1.047408       0.0033272247   0.364833      -0.6709371    
    690000   1.0301438      0.0037105375   0.34519849    -0.67349931   
    691000   0.94469933     0.0048251038   0.21489767    -0.719305     
    692000   0.94984049     0.0026531609   0.20105577    -0.73823094   
    693000   0.93994191     0.004217091    0.2242814     -0.70521671   
    694000   0.97585816     0.0027844144   0.28249536    -0.68251993   
    695000   0.98783204     0.0034637475   0.29601677    -0.68083936   
    696000   1.0670352      0.0025441978   0.40259942    -0.65257979   
    697000   1.026023       0.0034883749   0.3801353     -0.63448741   
    698000   0.98032428     0.0031539159   0.29463008    -0.6748017    
    699000   1.0879777      0.0033321102   0.42577064    -0.65011837   
    700000   0.98819559     0.0046137874   0.31075209    -0.66646354   
    701000   1.0140773      0.003817282    0.34668158    -0.65612822   
    702000   1.0381716      0.0041798688   0.42584467    -0.60079168   
    703000   1.0114705      0.0031249036   0.3121035     -0.68812843   
    704000   1.0037619      0.0031727594   0.31704358    -0.67556543   
    705000   0.95716764     0.0043348793   0.27377805    -0.6727544    
    706000   0.95859153     0.003330141    0.29013693    -0.65780358   
    707000   1.0768108      0.0043017429   0.37112623    -0.69372002   
    708000   1.0113138      0.004261954    0.34049298    -0.65958396   
    709000   1.0567159      0.0036690279   0.40892594    -0.63604865   
    710000   1.0464378      0.0043853696   0.37611734    -0.65869337   
    711000   0.94827653     0.003837341    0.23031807    -0.70742205   
    712000   0.99374221     0.0042545495   0.28758248    -0.69511815   
    713000   1.0111002      0.0034258118   0.3421421     -0.65772365   
    714000   1.0014384      0.0030966521   0.31017862    -0.68013266   
    715000   0.98622939     0.0022386527   0.28884299    -0.68642829   
    716000   1.0083854      0.0042339749   0.28629225    -0.71088883   
    717000   0.92204052     0.0022362036   0.23443411    -0.67736151   
    718000   0.93927725     0.0036923953   0.25054192    -0.67829891   
    719000   0.97605332     0.00365166     0.3167491     -0.64845918   
    720000   1.0609605      0.0023286747   0.39148522    -0.65768685   
    721000   1.0650353      0.004175702    0.38999747    -0.66320413   
    722000   0.89360962     0.0021471882   0.19391318    -0.68976744   
    723000   1.0080132      0.0047679526   0.31804012    -0.67877294   
    724000   0.93783589     0.0039388913   0.21717069    -0.71024479   
    725000   0.97529861     0.0037055594   0.29078439    -0.67367757   
    726000   1.0456469      0.0044191885   0.34185889    -0.69216966   
    727000   1.0181999      0.0036761232   0.35297695    -0.65390965   
    728000   0.99816453     0.0043109071   0.30554713    -0.68152668   
    729000   1.0522252      0.0040695392   0.35601536    -0.68451843   
    730000   1.0288553      0.0033573566   0.39043815    -0.62698537   
    731000   0.99843161     0.0033349803   0.31713534    -0.67020259   
    732000   0.9087796      0.0025116279   0.20528985    -0.6933922    
    733000   1.0338886      0.0046543018   0.34945715    -0.67294376   
    734000   0.95301632     0.0035030763   0.28581377    -0.65661349   
    735000   1.0427984      0.0034677716   0.39576764    -0.63544409   
    736000   1.0912227      0.0045533222   0.44489121    -0.63420684   
    737000   0.98579843     0.0045620876   0.33804307    -0.63680204   
    738000   0.89887506     0.003453624    0.22878504    -0.66010252   
    739000   1.0883537      0.003940273    0.36895214    -0.70730879   
    740000   0.97181132     0.0038158627   0.2504118     -0.71060162   
    741000   0.96720442     0.0039468678   0.24398548    -0.71247222   
    742000   0.97015627     0.0031666063   0.28304713    -0.67632962   
    743000   1.0080853      0.0049490223   0.29765966    -0.69922465   
    744000   0.90215398     0.0034187829   0.19787915    -0.69425089   
    745000   0.9717481      0.0027928331   0.27515758    -0.68579333   
    746000   0.99819974     0.0041685611   0.26983949    -0.71726914   
    747000   0.93820492     0.0032153824   0.23149518    -0.69628525   
    748000   0.8948999      0.0032832688   0.17815356    -0.706803     
    749000   1.0298938      0.0040036727   0.28325954    -0.73519101   
    750000   1.0203626      0.0047563495   0.31945757    -0.68956768   
    751000   1.0030576      0.0026366542   0.26994958    -0.72196294   
    752000   1.0040816      0.005262797    0.28884429    -0.70408089   
    753000   1.0302389      0.0032279784   0.32217041    -0.69662138   
    754000   0.97855486     0.0043861233   0.26678348    -0.70089854   
    755000   0.9629867      0.0030798352   0.25705528    -0.69523157   
    756000   1.0016384      0.0043143678   0.32548031    -0.66502876   
    757000   1.0447667      0.0043203074   0.34574592    -0.68741222   
    758000   0.97636891     0.0030949259   0.25714968    -0.7083707    
    759000   1.0021341      0.0024804032   0.31580087    -0.67519843   
    760000   1.0246387      0.0040517275   0.33429321    -0.6789606    
    761000   1.0338822      0.003490084    0.3440493     -0.67834531   
    762000   0.95271091     0.0032088958   0.28945122    -0.65267401   
    763000   1.0528553      0.0036752564   0.37114762    -0.67000926   
    764000   0.94571662     0.0024627988   0.29157912    -0.64362954   
    765000   0.98905099     0.0041815082   0.282355      -0.69570653   
    766000   1.0581565      0.005674973    0.34433869    -0.70206052   
    767000   0.90526151     0.0038394151   0.18356674    -0.7116363    
    768000   1.0691423      0.0039380023   0.37764241    -0.67962049   
    769000   1.026032       0.0038252775   0.30314314    -0.71148849   
    770000   0.8912441      0.0030482662   0.19667896    -0.68466243   
    771000   1.0228255      0.0034004218   0.3094013     -0.70205951   
    772000   0.98826531     0.0040230462   0.28929338    -0.6879912    
    773000   1.0526126      0.003927847    0.33539421    -0.70552266   
    774000   0.98173424     0.0034022319   0.2621314     -0.70869468   
    775000   1.1312645      0.0042730686   0.38632881    -0.7323661    
    776000   0.96731058     0.0044867248   0.25079843    -0.70576426   
    777000   0.95539325     0.0026908392   0.25305067    -0.6917271    
    778000   0.99309126     0.0031955364   0.28826826    -0.69378865   
    779000   1.0026084      0.0028336113   0.29570114    -0.69576712   
    780000   0.96390828     0.0036891934   0.25698535    -0.69621284   
    781000   0.95522974     0.0049233479   0.23107253    -0.71354354   
    782000   1.0555252      0.0049131723   0.33836611    -0.705431     
    783000   0.9308628      0.0036724676   0.19893793    -0.72158195   
    784000   0.93366386     0.004023634    0.21642328    -0.70686654   
    785000   0.9986679      0.0031907071   0.24142857    -0.74614303   
    786000   0.95901206     0.0039595022   0.19555789    -0.75279848   
    787000   1.0170704      0.0030880912   0.24265782    -0.76311182   
    788000   1.0370317      0.0039635065   0.33027712    -0.69523203   
    789000   1.0525673      0.0043374818   0.30857546    -0.73229669   
    790000   1.1157297      0.0040602324   0.37560979    -0.72772293   
    791000   1.0663619      0.0042213985   0.28577579    -0.7687376    
    792000   1.0728909      0.004621055    0.33165809    -0.72931181   
    793000   0.94879732     0.0037885666   0.2008719     -0.73738323   
    794000   0.98695756     0.0028997836   0.25522742    -0.72076394   
    795000   0.99554328     0.0034504443   0.24080123    -0.74368046   
    796000   1.11118        0.003730179    0.39421408    -0.70461948   
    797000   0.98942014     0.0045559121   0.26690304    -0.71152353   
    798000   1.0787753      0.0023575087   0.36874611    -0.69804284   
    799000   1.0176959      0.0051326021   0.31431845    -0.69206975   
    800000   0.98675143     0.0046464591   0.23663427    -0.73915326   
    801000   0.94660241     0.0029661554   0.19741561    -0.738669     
    802000   1.0112161      0.0023806207   0.26454055    -0.73543986   
    803000   0.92168742     0.0050398022   0.16917018    -0.74227627   
    804000   0.98794907     0.0044531832   0.22743797    -0.74953388   
    805000   1.091515       0.0050710807   0.31724053    -0.76214648   
    806000   1.0129827      0.003759114    0.26483651    -0.73689088   
    807000   1.0215466      0.0043450312   0.26327926    -0.74691682   
    808000   1.0308888      0.0036446577   0.32069863    -0.69873589   
    809000   1.1140382      0.0039393234   0.35544373    -0.74621628   
    810000   1.0040738      0.0018669627   0.24603474    -0.74688265   
    811000   0.96723289     0.002603091    0.25279679    -0.70368907   
    812000   0.9591051      0.0033600834   0.25052985    -0.69791853   
    813000   1.0496652      0.0031648224   0.29103556    -0.7469667    
    814000   0.99249341     0.0035081258   0.24914336    -0.73232235   
    815000   1.0787457      0.0046842306   0.34151451    -0.72524509   
    816000   1.1132631      0.0054628259   0.36297654    -0.73791698   
    817000   0.90089114     0.0038015408   0.10968829    -0.78119295   
    818000   0.96536026     0.0042379801   0.24186741    -0.71276663   
    819000   1.0292037      0.0044124531   0.27088022    -0.74688783   
    820000   1.0418947      0.0033634486   0.27951621    -0.75080193   
    821000   0.98438178     0.0042901893   0.20578782    -0.76765638   
    822000   1.035441       0.0037956745   0.28713122    -0.73680486   
    823000   1.0506676      0.0038467846   0.26877844    -0.77021508   
    824000   0.92780076     0.0023788591   0.19223548    -0.72525638   
    825000   1.0540008      0.003742079    0.30456688    -0.73772279   
    826000   1.0101321      0.0026189726   0.27285704    -0.72605134   
    827000   0.91047796     0.0032731558   0.14176541    -0.75859613   
    828000   1.0127811      0.0028289439   0.23330397    -0.76822396   
    829000   1.0200166      0.0033324372   0.26966843    -0.7390147    
    830000   0.90971148     0.003169213    0.18642612    -0.71317746   
    831000   0.88798947     0.0037789675   0.16048693    -0.71763599   
    832000   0.97432666     0.0017827678   0.21573807    -0.74776273   
    833000   1.0426312      0.0043492839   0.29816748    -0.73287892   
    834000   1.0194839      0.0047449712   0.24393679    -0.76421955   
    835000   0.93384018     0.0028716516   0.20421791    -0.71924627   
    836000   1.0111329      0.0030699639   0.24934173    -0.75055632   
    837000   1.0490424      0.0034530894   0.31702428    -0.72036206   
    838000   1.0603091      0.0041723601   0.30116509    -0.74736279   
    839000   1.0392529      0.0040939609   0.29662698    -0.73107869   
    840000   1.0213886      0.0036733074   0.26472571    -0.74531414   
    841000   0.96800605     0.0032887507   0.19817413    -0.7590763    
    842000   1.0570368      0.0046504033   0.34210745    -0.70318453   
    843000   1.0388028      0.0033374543   0.35208949    -0.67517104   
    844000   1.0018278      0.0035122988   0.3027661     -0.68793027   
    845000   0.9542824      0.0022313608   0.26605279    -0.67762646   
    846000   1.0186135      0.0043656719   0.36387604    -0.64341956   
    847000   0.95094799     0.002176513    0.29210567    -0.64827622   
    848000   1.0388788      0.0038731822   0.37311644    -0.65421926   
    849000   0.97395492     0.0037133528   0.29045867    -0.67267453   
    850000   1.0552018      0.0043462564   0.36699644    -0.67648085   
    851000   0.95514529     0.0036213054   0.27950085    -0.66503172   
    852000   0.91631784     0.0022855487   0.24024618    -0.66589035   
    853000   0.96262745     0.0028719979   0.30727686    -0.64465472   
    854000   1.0301564      0.0035586666   0.35421431    -0.66449589   
    855000   0.86223507     0.0024171752   0.20433497    -0.64831971   
    856000   1.003169       0.0051633999   0.33431331    -0.65770934   
    857000   1.0013335      0.0030191454   0.34971689    -0.64049072   
    858000   0.99577042     0.003040536    0.33428676    -0.65041955   
    859000   1.0340436      0.0039606949   0.35362562    -0.66892864   
    860000   0.94991817     0.004620984    0.30490782    -0.6344557    
    861000   0.97379476     0.0034610427   0.31584449    -0.64713032   
    862000   0.9953908      0.0046077056   0.33398782    -0.65034308   
    863000   1.0766734      0.0035756808   0.43909797    -0.62561238   
    864000   1.001835       0.0032945045   0.32554762    -0.66515587   
    865000   1.0060575      0.0051654507   0.34106277    -0.65381628   
    866000   1.0153909      0.0038777236   0.29070526    -0.71340349   
    867000   0.95831087     0.0032035308   0.28980641    -0.65785656   
    868000   0.98976387     0.0034120576   0.30822845    -0.67053804   
    869000   0.97439042     0.0045473042   0.2576964     -0.70586745   
    870000   1.0162421      0.0037339317   0.31920349    -0.685747     
    871000   1.0017418      0.0037753814   0.31909432    -0.67151706   
    872000   0.95974268     0.0039251754   0.29945408    -0.6496248    
    873000   1.0852508      0.0043441157   0.37421834    -0.69897416   
    874000   1.0140376      0.0043076885   0.32079122    -0.68197933   
    875000   0.91930583     0.0021907969   0.22457109    -0.68452022   
    876000   0.9979734      0.0033888056   0.29993988    -0.68694492   
    877000   1.0679174      0.0039424819   0.37669966    -0.67935201   
    878000   0.98496803     0.0044678926   0.29187684    -0.68214711   
    879000   0.98665744     0.0032195846   0.33118987    -0.64450471   
    880000   0.97966458     0.0034743022   0.2943372     -0.67444221   
    881000   0.96851247     0.0045971896   0.26921723    -0.68853399   
    882000   0.98010654     0.004804682    0.29530342    -0.67391305   
    883000   1.0146516      0.0043995492   0.31820828    -0.68516943   
    884000   1.0185134      0.0036820091   0.31697412    -0.69022248   
    885000   1.0230703      0.003908032    0.3586096     -0.65309323   
    886000   0.99554994     0.0038410778   0.29328312    -0.69120515   
    887000   1.0914945      0.0038171988   0.38619676    -0.69316999   
    888000   0.93474773     0.0026067742   0.21023611    -0.71412554   
    889000   1.1129191      0.0040706876   0.38963649    -0.71091686   
    890000   0.95276801     0.0050889726   0.19291272    -0.74926897   
    891000   0.92735622     0.0026493043   0.18590974    -0.73114252   
    892000   1.0226089      0.0030517981   0.27665491    -0.7345917    
    893000   0.9971249      0.0030563759   0.25598971    -0.73005602   
    894000   0.95545132     0.0044400244   0.16581465    -0.77902054   
    895000   0.92209053     0.0024458368   0.1865294     -0.72531568   
    896000   1.0981432      0.0052879106   0.29460514    -0.7913365    
    897000   0.98459446     0.0020529018   0.21135324    -0.76230129   
    898000   1.0426181      0.0046150631   0.31770561    -0.71332786   
    899000   0.8721128      0.0036516704   0.080175688   -0.78224697   
    900000   1.0153225      0.0052915225   0.24987428    -0.75416691   
    901000   1.0103929      0.0026397696   0.20879721    -0.79036909   
    902000   0.91122952     0.0041311935   0.11546001    -0.78564474   
    903000   1.010217       0.0044589826   0.19493163    -0.80406079   
    904000   1.0161706      0.0036679263   0.18348482    -0.82139502   
    905000   0.97137525     0.0037122505   0.15924137    -0.80134082   
    906000   0.99772488     0.0035261243   0.22923071    -0.75740834   
    907000   0.98249843     0.00454515     0.22689994    -0.74468184   
    908000   1.0722629      0.0029507869   0.31838282    -0.74196604   
    909000   1.0139621      0.0025734625   0.26152083    -0.74117499   
    910000   1.0348118      0.0042199336   0.2834677     -0.73984618   
    911000   1.0737857      0.0044861207   0.31989488    -0.74195984   
    912000   1.1343063      0.0038959232   0.36885171    -0.75285122   
    913000   1.0367539      0.0042204533   0.28966068    -0.73557371   
    914000   1.0651014      0.0033417696   0.30865618    -0.74461077   
    915000   1.0180399      0.0047063082   0.24812612    -0.75860219   
    916000   0.9983999      0.0039708468   0.22343171    -0.76387486   
    917000   1.0280171      0.0035056968   0.24664372    -0.76995095   
    918000   0.90777281     0.0034780048   0.11070133    -0.78698511   
    919000   0.9724908      0.0031653685   0.14119171    -0.82049365   
    920000   0.99237399     0.0033105646   0.17583698    -0.80551063   
    921000   0.98410043     0.0043368782   0.23186453    -0.74130145   
    922000   0.96145458     0.003620402    0.17017024    -0.78060151   
    923000   0.97747747     0.0052145287   0.20299834    -0.76361826   
    924000   0.93707447     0.002547508    0.12927495    -0.79738758   
    925000   0.92759636     0.0025886454   0.11854584    -0.7987439    
    926000   0.93927678     0.0024671038   0.17185009    -0.75699028   
    927000   0.9660361      0.0031477371   0.16467548    -0.79062689   
    928000   1.0001082      0.0031505333   0.2225261     -0.76646982   
    929000   1.0599766      0.0030328657   0.27505266    -0.77314637   
    930000   0.9770872      0.0033691608   0.20775022    -0.75848046   
    931000   0.96136838     0.0043909892   0.1688919     -0.78179461   
    932000   1.1212662      0.0054276073   0.33202357    -0.77678407   
    933000   1.0642982      0.0044514706   0.28231787    -0.7701548    
    934000   0.9976265      0.0036730418   0.22174077    -0.76480099   
    935000   0.97096393     0.0029046976   0.17165959    -0.78851585   
    936000   1.0595775      0.0040991167   0.24958774    -0.79821666   
    937000   1.0315029      0.0044919317   0.31492789    -0.70511388   
    938000   1.0359762      0.0038905359   0.25789985    -0.76656546   
    939000   1.0335379      0.0033589553   0.2303815     -0.79167265   
    940000   0.93918753     0.0038369994   0.1565545     -0.77219761   
    941000   0.99033492     0.0043857102   0.22462235    -0.75470884   
    942000   1.0777728      0.0046549995   0.25592441    -0.80987318   
    943000   0.89071098     0.004329698    0.073653559   -0.80716063   
    944000   0.99482408     0.003105626    0.19962047    -0.78415001   
    945000   0.99787857     0.0043465928   0.18341902    -0.80337201   
    946000   1.1224599      0.0036094298   0.31457401    -0.79541415   
    947000   0.96901846     0.0031711901   0.18315883    -0.77509276   
    948000   1.0392309      0.0025038859   0.24942866    -0.77825521   
    949000   1.0180076      0.0030997748   0.24709621    -0.75960016   
    950000   1.0576522      0.0045227469   0.31063427    -0.73526628   
    951000   1.0046317      0.0036349634   0.22404748    -0.76942168   
    952000   1.0704592      0.0043884636   0.27362645    -0.78493873   
    953000   1.001881       0.0044719391   0.23437002    -0.75637896   
    954000   1.0072826      0.0034588894   0.23135786    -0.76473268   
    955000   1.0209564      0.0037698889   0.2424698     -0.76714263   
    956000   0.92015496     0.0036497304   0.12309486    -0.78683616   
    957000   0.9594701      0.0045615374   0.15932757    -0.78948175   
    958000   1.0102873      0.0045160366   0.17529955    -0.82376233   
    959000   1.0242572      0.0023728832   0.27472548    -0.73815109   
    960000   1.0464254      0.0037245404   0.29579196    -0.73900647   
    961000   1.0372688      0.0052293678   0.21530958    -0.81043406   
    962000   1.0197895      0.0037970156   0.23734833    -0.77111015   
    963000   0.9943134      0.0046387258   0.21768451    -0.76558096   
    964000   1.0194301      0.0032847077   0.20536004    -0.80274307   
    965000   1.0048009      0.0032998458   0.24081049    -0.75282593   
    966000   1.0699789      0.0039361394   0.28487926    -0.77321095   
    967000   1.0531576      0.0034548723   0.27174986    -0.76970601   
    968000   1.0087475      0.0036011546   0.20689253    -0.7906467    
    969000   1.0240137      0.003099372    0.2390266     -0.77360921   
    970000   1.1192281      0.0036752038   0.34601462    -0.76077765   
    971000   1.0718248      0.0018007159   0.28455816    -0.77535745   
    972000   0.98823367     0.0033859903   0.13888121    -0.83837209   
    973000   1.1073509      0.003414642    0.30832432    -0.78672271   
    974000   1.0608166      0.0058885057   0.22519964    -0.82383013   
    975000   0.95888466     0.0052969856   0.10929134    -0.83893904   
    976000   1.0201572      0.0031887839   0.21546681    -0.79335527   
    977000   0.94818426     0.0033640131   0.12734335    -0.81030552   
    978000   0.98335201     0.0033356207   0.16478367    -0.80764221   
    979000   0.96646911     0.0018261031   0.18570586    -0.7700247    
    980000   0.98811867     0.0048429504   0.2258004     -0.75133917   
    981000   0.90103469     0.0028434954   0.10211732    -0.78890587   
    982000   1.0793007      0.0048797947   0.27336392    -0.79394458   
    983000   0.98385053     0.001619501    0.18456201    -0.78835685   
    984000   1.016261       0.0044504339   0.22372021    -0.78124899   
    985000   1.0336104      0.0026134738   0.25205166    -0.77007413   
    986000   1.033408       0.0037068832   0.24476367    -0.77716206   
    987000   1.0221371      0.003154712    0.20902121    -0.80175883   
    988000   0.96148876     0.0036565239   0.18634529    -0.76446026   
    989000   0.99001057     0.0045929193   0.17279379    -0.80621667   
    990000   1.0492751      0.0036817535   0.19943371    -0.83818276   
    991000   0.91071369     0.0036130362   0.10779164    -0.79280302   
    992000   0.93455459     0.00195606     0.16165611    -0.76251454   
    993000   1.03342        0.0029397413   0.22738823    -0.79454929   
    994000   1.0005714      0.0029737418   0.19246147    -0.79699251   
    995000   0.99919786     0.0051822076   0.16214013    -0.82595553   
    996000   0.97546115     0.0026391008   0.15275777    -0.81186493   
    997000   1.0094123      0.0031016604   0.22004619    -0.77815043   
    998000   1.0679661      0.0034624965   0.29305218    -0.76304765   
    999000   1.0074482      0.003414186    0.15245514    -0.84379919   
   1000000   1.02375        0.0044839141   0.20811371    -0.80426134   
Loop time of 18.338 on 1 procs for 1000000 steps with 405 atoms

Performance: 47115205.773 tau/day, 54531.488 timesteps/s
99.2% CPU use with 1 MPI tasks x no OpenMP threads

MPI task timing breakdown:
Section |  min time  |  avg time  |  max time  |%varavg| %total
---------------------------------------------------------------
Pair    | 1.6109     | 1.6109     | 1.6109     |   0.0 |  8.78
Bond    | 0.04184    | 0.04184    | 0.04184    |   0.0 |  0.23
Neigh   | 3.8352     | 3.8352     | 3.8352     |   0.0 | 20.91
Comm    | 0.85714    | 0.85714    | 0.85714    |   0.0 |  4.67
Output  | 0.31808    | 0.31808    | 0.31808    |   0.0 |  1.73
Modify  | 10.348     | 10.348     | 10.348     |   0.0 | 56.43
Other   |            | 1.327      |            |       |  7.24

Nlocal:            405 ave         405 max         405 min
Histogram: 1 0 0 0 0 0 0 0 0 0
Nghost:             52 ave          52 max          52 min
Histogram: 1 0 0 0 0 0 0 0 0 0
Neighs:            119 ave         119 max         119 min
Histogram: 1 0 0 0 0 0 0 0 0 0

Total # of neighbors = 119
Ave neighs/atom = 0.29382716
Ave special neighs/atom = 0
Neighbor list builds = 212476
Dangerous builds = 0
Total wall time: 0:00:18
