fix fLANG all langevin 1.0 1.0 1.0 100
neigh_modify exclude molecule/intra all
fix rigidNVE linked_vesicle rigid/nve molecule
  1 rigid bodies with 5 atoms
fix NVE synapsin nve 1.0 1.0 1.0

    ##======================================##
    ## Output
    ##======================================##

thermo 1000
thermo_style custom step temp press etotal epair
thermo_modify flush yes
timestep 0.01

    ##======================================##
    ## Equilibration before output
    ##======================================##


    ##======================================##
    ## Run with output
    ##======================================##

fix enforce_2d all enforce2d
dump 2 all custom 1000 Results_eps_attr3_eps_rep1_eps_rep_weak0_range2_attr_with_repFalse_n_synapsin600_n_vesicles1/Movie_2d_eps_attr3_eps_rep1_eps_rep_weak0_range2_attr_with_repFalse_n_synapsin600_n_vesicles1.xyz id type mol x y z
run 1000000
Generated 0 of 3 mixed pair_coeff terms from geometric mixing rule
Neighbor list info ...
  update every 1 steps, delay 1 steps, check yes
  max neighbors/atom: 2000, page size: 100000
  master list distance cutoff = 11.52462
  ghost atom cutoff = 11.52462
  binsize = 5.7623102, bins = 55 55 1
  1 neighbor lists, perpetual/occasional/extra = 1 0 0
  (1) pair cosine/squared, perpetual
      attributes: half, newton on
      pair build: half/bin/newton
      stencil: half/bin/2d
      bin: standard
Per MPI rank memory allocation (min/avg/max) = 8.538 | 8.538 | 8.538 Mbytes
   Step          Temp          Press          TotEng         E_pair    
         0   0.99605013    -0.012465183    0.98864149     0            
      1000   0.97983247     0.0065991879   0.96765271    -0.0048917518 
      2000   1.0341068      0.0063785357   1.0205901     -0.0058250679 
      3000   1.0690106      0.0060668645   1.0568137     -0.0042455713 
      4000   0.97454502     0.0063625461   0.9628918     -0.0044045404 
      5000   0.99520637     0.0067178122   0.98357997    -0.0042240411 
      6000   1.0166215      0.0065083858   1.0063141     -0.0027457474 
      7000   0.94462178     0.0058081431   0.93080445    -0.006791214  
      8000   1.0003124      0.0071446674   0.98161264    -0.011259419  
      9000   0.95518308     0.0064909945   0.94104138    -0.0070370294 
     10000   0.95760316     0.0064238413   0.94319788    -0.0072826058 
     11000   1.0316835      0.0064734094   1.0148177     -0.0091920767 
     12000   0.99867119     0.0062484737   0.98260935    -0.0086337082 
     13000   0.99457354     0.0061973839   0.97486485    -0.012311031  
     14000   0.96605756     0.0067522434   0.94866338    -0.010208622  
     15000   0.99029794     0.0058625287   0.97250598    -0.010426104  
     16000   0.93882019     0.0051402652   0.92216315    -0.0096740822 
     17000   1.0800358      0.0066660428   1.0627157     -0.0092867008 
     18000   0.90523206     0.0054367262   0.89084973    -0.007649201  
     19000   0.94105921     0.0056965525   0.91461099    -0.019448606  
     20000   1.0421746      0.0066664676   1.020465      -0.013957902  
     21000   0.92929448     0.0062607516   0.91007215    -0.012310223  
     22000   0.9565787      0.0048396465   0.93692906    -0.012534591  
     23000   0.98166119     0.0064029137   0.96411281    -0.010246776  
     24000   0.94189694     0.005895755    0.93031654    -0.0045745528 
     25000   1.0487764      0.0067413199   1.0360195     -0.0049560733 
     26000   0.94406842     0.0066780846   0.93157705    -0.0054693729 
     27000   1.0290099      0.0064481587   1.0123657     -0.0089904783 
     28000   1.0186276      0.0061177256   1.0081412     -0.0029097725 
     29000   1.0229119      0.0063214824   1.0103448     -0.0049586777 
     30000   1.0176761      0.0067396035   1.0061151     -0.0039915589 
     31000   1.0076132      0.0065618947   0.99601016    -0.0041084257 
     32000   1.0786929      0.0072482755   1.061162      -0.0095075158 
     33000   0.97753074     0.005532336    0.96196724    -0.0082926029 
     34000   1.0061263      0.0060305619   0.99350028    -0.0051424662 
     35000   1.0611345      0.0057735914   1.0470997     -0.0061420639 
     36000   0.94496165     0.005678974    0.9283667     -0.0095663158 
     37000   1.0012175      0.007095509    0.98472889    -0.0090415264 
     38000   1.0068545      0.0066653563   0.99458816    -0.0047773751 
     39000   1.0078814      0.0060298959   0.99556273    -0.0048219845 
     40000   1.0362747      0.0071249912   1.0230188     -0.0055480955 
     41000   1.0524653      0.0062111758   1.0334576     -0.011179498  
     42000   0.90928223     0.0048249568   0.89727868    -0.0052402955 
     43000   0.95539783     0.0056966214   0.94397847    -0.004313099  
     44000   1.0545037      0.0070104649   1.0417016     -0.0049586777 
     45000   1.0863336      0.0061887217   1.0683361     -0.0099173554 
     46000   0.93684694     0.0060416333   0.9277702     -0.0021084543 
     47000   0.97511865     0.0050671091   0.962986      -0.0048797044 
     48000   0.9821122      0.0057480303   0.96740717    -0.0074000649 
     49000   1.0279388      0.0066052119   1.0177752     -0.0025176955 
     50000   0.94279844     0.0045629962   0.92983608    -0.0059498153 
     51000   1.0399252      0.0065633859   1.0192147     -0.012975585  
     52000   0.92917662     0.006458712    0.90998276    -0.012282624  
     53000   1.02434        0.0065790876   1.0117713     -0.00494963   
     54000   1.0096543      0.0062106072   0.99265509    -0.0094893935 
     55000   1.0155753      0.0061717479   0.99492979    -0.0130916    
     56000   0.93887197     0.0055747956   0.92709246    -0.0047961653 
     57000   1.0132018      0.0063529981   1.0056656      0            
     58000   0.9380072      0.0071206439   0.91706704    -0.013963242  
     59000   1.0174856      0.0059979282   1.003009      -0.0069084769 
     60000   0.97447346     0.0063782644   0.94889551    -0.018329805  
     61000   0.97538437     0.0062486186   0.9544101     -0.01371935   
     62000   0.99179785     0.0060501294   0.97564159    -0.0087792569 
     63000   0.95800184     0.0056419211   0.94584937    -0.0050268427 
     64000   1.0405709      0.0065676315   1.0246282     -0.0082029484 
     65000   1.0269297      0.0061402773   1.0093604     -0.0099309563 
     66000   0.96491524     0.0063428776   0.94750998    -0.010228211  
     67000   1.0332857      0.0061837224   1.0205575     -0.0050426079 
     68000   0.95790863     0.0057406569   0.93340152    -0.017382174  
     69000   0.96688748     0.0050975296   0.93368947    -0.026006283  
     70000   0.97857553     0.0052841421   0.94999449    -0.021302373  
     71000   0.9852732      0.0061200968   0.95478861    -0.023156105  
     72000   1.0359253      0.0060970526   1.0085126     -0.019707492  
     73000   1.0361753      0.0061784136   1.0087617     -0.019706442  
     74000   0.99481257     0.0073818834   0.96246256    -0.024950579  
     75000   0.95671472     0.0063042985   0.93169865    -0.017900002  
     76000   1.0117184      0.0067785466   0.9849742     -0.019219015  
     77000   0.94689758     0.0063045778   0.92446374    -0.015390801  
     78000   0.99757726     0.0062344213   0.97190813    -0.018249141  
     79000   0.97234711     0.0067504433   0.95479512    -0.01031965   
     80000   1.0273649      0.0071827356   1.0072975     -0.012425831  
     81000   0.95921267     0.0047092783   0.93050899    -0.021569038  
     82000   0.96745231     0.0056731129   0.95132948    -0.0089269038 
     83000   0.96045183     0.0051921099   0.945832      -0.0074759716 
     84000   1.0472374      0.0063623789   1.0274174     -0.012030608  
     85000   0.95741823     0.0057498984   0.93519123    -0.015105715  
     86000   0.92661591     0.0058172876   0.90208267    -0.017641057  
     87000   0.93019506     0.0049586833   0.90164954    -0.02162671   
     88000   1.000481       0.0062038082   0.9840099     -0.0090294882 
     89000   1.0102738      0.0057128711   0.98387456    -0.018884812  
     90000   0.98885769     0.0060075808   0.95929367    -0.022208872  
     91000   1.0283519      0.0052663964   1.0094815     -0.01122152   
     92000   1.0291113      0.0065210293   1.0123937     -0.0090630627 
     93000   0.98462359     0.0067156382   0.9712514     -0.0060485467 
     94000   1.001189       0.0065675825   0.98048222    -0.013259952  
     95000   1.0202145      0.0060977978   0.99207823    -0.020547883  
     96000   0.97651709     0.0057421845   0.95656391    -0.012689837  
     97000   1.0113426      0.0046063989   0.99008897    -0.013731271  
     98000   1.0068744      0.0057096926   0.987278      -0.012107224  
     99000   1.0075826      0.0065266609   0.99033529    -0.0097528568 
    100000   1.0092179      0.0060565302   0.99377541    -0.0079359416 
    101000   1.0419263      0.0065071353   1.0161635     -0.018012923  
    102000   1.0477504      0.0062139774   1.0291799     -0.010777264  
    103000   0.97212212     0.0062640548   0.9553328     -0.0095586611 
    104000   0.97457409     0.0058846394   0.95810816    -0.0092170301 
    105000   1.0133434      0.0072666517   0.9922705     -0.013535635  
    106000   1.0167925      0.0060554265   1.0027401     -0.0064894917 
    107000   0.91944596     0.0056209681   0.89832532    -0.014281784  
    108000   0.94688434     0.0064033387   0.92180253    -0.018038871  
    109000   0.98057757     0.0057628046   0.95846144    -0.014822581  
    110000   1.0120952      0.0069472196   0.99396893    -0.010598322  
    111000   0.99688278     0.0060741783   0.97466361    -0.014804347  
    112000   0.9836417      0.0067585579   0.95528155    -0.021043808  
    113000   1.0091554      0.0065226033   0.98845151    -0.01319776   
    114000   0.99745318     0.0060765598   0.97777577    -0.012258339  
    115000   1.0339455      0.0054989106   1.0185975     -0.0076575405 
    116000   1.0247441      0.0060841624   1.0012377     -0.015884274  
    117000   1.0191999      0.0052291546   0.99402161    -0.01759747   
    118000   0.99331175     0.0068373023   0.97038858    -0.015534908  
    119000   0.98686732     0.0054393675   0.96561995    -0.013907031  
    120000   1.0202069      0.0059071917   1.0076599     -0.0049586777 
    121000   1.0142266      0.0069375183   0.99958817    -0.0070946404 
    122000   1.0739243      0.0066002759   1.0532958     -0.012640613  
    123000   1.0400668      0.007100769    1.0157038     -0.01662691   
    124000   0.97912457     0.0051635737   0.96131223    -0.010529596  
    125000   0.96496589     0.0050899941   0.94566748    -0.01212098   
    126000   1.0326589      0.0055064213   1.0165837     -0.0083941906 
    127000   1.0156528      0.0061363264   1.003207      -0.0048913577 
    128000   0.98579038     0.0056816047   0.96676017    -0.011697886  
    129000   0.98415017     0.0058762667   0.97238698    -0.0044430635 
    130000   1.0027806      0.0068067502   0.99802248     0.0027006215 
    131000   1.0633884      0.006381717    1.0529294     -0.0025495064 
    132000   0.98393895     0.0058778072   0.97245791    -0.0041624891 
    133000   1.0002436      0.0058092325   0.9878451     -0.0049586777 
    134000   1.0238802      0.00581555     1.0162604     -4.1134738e-06
    135000   1.098118       0.0074951006   1.0813798     -0.0085703775 
    136000   0.9866884      0.0058228061   0.9696191     -0.0097302912 
    137000   1.0330641      0.0054370948   1.0157498     -0.0096303818 
    138000   0.98670767     0.0055364183   0.97079695    -0.0085715677 
    139000   1.004664       0.00488784     0.99238983    -0.0048014917 
    140000   1.0332805      0.0064377899   1.0179095     -0.0076854401 
    141000   0.98334362     0.0058050788   0.97222753    -0.0038019566 
    142000   1.0094064      0.0063009737   0.99696345    -0.0049349275 
    143000   1.0598478      0.0058767104   1.0390158     -0.01294886   
    144000   0.99596643     0.0061113508   0.98208066    -0.0064777582 
    145000   0.9924136      0.0054048166   0.98011565    -0.0049163572 
    146000   0.93659806     0.0053547835   0.92386802    -0.0057636054 
    147000   0.97127363     0.0055716638   0.95390352    -0.010145767  
    148000   0.94137992     0.0057991727   0.92160326    -0.012774657  
    149000   1.0022653      0.0062265524   0.98057615    -0.014234249  
    150000   0.94465329     0.0056908171   0.92370386    -0.013923091  
    151000   1.0223009      0.0078198044   1.0091158     -0.005581176  
    152000   1.0734159      0.007046875    1.0569747     -0.0084572004 
    153000   0.95985597     0.0049627465   0.94310805    -0.009608498  
    154000   1.0164562      0.0056068945   1.0045006     -0.0043951645 
    155000   0.92711613     0.0061028687   0.92021961    -6.163152e-07 
    156000   1.0324937      0.0064799202   1.024814       0            
    157000   1.0338527      0.0057936505   1.0233192     -0.0028436495 
    158000   1.0449953      0.0076572826   1.0322639     -0.0049586777 
    159000   0.93420937     0.0049249582   0.92469211    -0.0025685987 
    160000   1.0275249      0.0052591214   1.0152377     -0.004644421  
    161000   0.99945371     0.0058453607   0.98712163    -0.0048981247 
    162000   0.96893962     0.0059233182   0.95602626    -0.005706375  
    163000   0.93627397     0.005842049    0.91987842    -0.009431526  
    164000   1.0159884      0.0056951717   0.99946775    -0.0089636725 
    165000   0.95943772     0.0061858524   0.94482439    -0.0074770178 
    166000   0.98321362     0.0050320296   0.96775554    -0.008144923  
    167000   0.98384201     0.0053292824   0.97167365    -0.0048505278 
    168000   1.0867411      0.0064707168   1.0742545     -0.0044033522 
    169000   0.96145917     0.0053291513   0.94645721    -0.0078506117 
    170000   0.97298797     0.0062848315   0.95596686    -0.0097840045 
    171000   0.97884596     0.0063252168   0.96238443    -0.0091808574 
    172000   1.0513109      0.0062130868   1.04129       -0.0022011792 
    173000   1.0062857      0.006032755    0.99528426    -0.0035166793 
    174000   1.0165752      0.0065903984   1.0023052     -0.0067086374 
    175000   0.91270916     0.0066782885   0.89414027    -0.011780143  
    176000   0.99957089     0.0056640535   0.98358783    -0.0085482275 
    177000   1.0346883      0.0059547372   1.0227532     -0.0042390477 
    178000   0.96589713     0.0066564716   0.94625929    -0.012453484  
    179000   1.0247646      0.0072328977   1.0057266     -0.011415835  
    180000   0.99352032     0.0057859543   0.97079172    -0.01533878   
    181000   1.0375473      0.0062113033   1.022656      -0.0071740624 
    182000   1.0804035      0.006631248    1.0672297     -0.0051377351 
    183000   1.0124848      0.0057453536   1.0003538     -0.0046001381 
    184000   1.0210189      0.0060806462   1.0102882     -0.0031363634 
    185000   1.0516495      0.0064473921   1.0389        -0.0049273365 
    186000   0.97934498     0.0072241395   0.9672065     -0.0048540985 
    187000   1.0107242      0.0071322667   1.0032065      0            
    188000   1.0605932      0.0066785855   1.0527045      0            
    189000   1.0167301      0.0062229137   1.0091677      0            
    190000   1.0069392      0.0049532659   0.99568845    -0.0037611036 
    191000   1.0070305      0.0066330423   0.99654415    -0.0029960723 
    192000   1.0448737      0.0068118541   1.0321433     -0.0049586777 
    193000   1.0118242      0.0059269098   0.99959956    -0.0046986821 
    194000   0.99372209     0.00598095     0.98160344    -0.0047273299 
    195000   0.99478273     0.0047850327   0.98251626    -0.0048672595 
    196000   1.0249004      0.006279326    1.0096672     -0.0076099609 
    197000   1.046135       0.0068566036   1.0383538      0            
    198000   1.0770127      0.0071569292   1.0691277      0.00012579269
    199000   1.0233352      0.0058589418   1.0116872     -0.0040363922 
    200000   0.94932219     0.0046886147   0.93607228    -0.0061888336 
    201000   1.0022279      0.0065486577   0.98797118    -0.0068021518 
    202000   1.0033296      0.0067007813   0.9958668      0            
    203000   1.0136898      0.0058117675   1.0012987     -0.0048513    
    204000   1.0110343      0.0059249734   0.99919305    -0.0043211953 
    205000   1.044279       0.0066782353   1.0268361     -0.0096755337 
    206000   0.91672862     0.0044818905   0.9094856     -0.00042437488
    207000   1.0043744      0.0057211682   0.98453327    -0.012370599  
    208000   0.99748653     0.0059240247   0.98327627    -0.0067909389 
    209000   1.0479907      0.0058373705   1.0285007     -0.01169496   
    210000   1.0074655      0.0065001475   0.98496388    -0.015008105  
    211000   1.0010859      0.0059068001   0.97812602    -0.01551379   
    212000   0.99542948     0.0067380192   0.97514038    -0.012885079  
    213000   0.99996283     0.0062364392   0.97835476    -0.01417033   
    214000   1.0318709      0.006341457    1.0062643     -0.017931473  
    215000   0.99607142     0.005948839    0.97611073    -0.012551889  
    216000   1.0288656      0.0067077839   1.0137896     -0.0074232781 
    217000   0.98227832     0.0055090213   0.96618537    -0.0087867439 
    218000   1.0370057      0.0065546626   1.0155451     -0.013747312  
    219000   1.0681985      0.006620515    1.0482789     -0.011974368  
    220000   0.91340949     0.0044658045   0.89518817    -0.011427365  
    221000   1.0100806      0.0066152994   0.99534837    -0.0072192378 
    222000   1.0092613      0.0060745847   0.98345079    -0.018303569  
    223000   0.9869631      0.0050503911   0.96567127    -0.013950785  
    224000   0.98305827     0.0058562837   0.95973614    -0.016010133  
    225000   1.0162166      0.0053466203   0.97848106    -0.030176949  
    226000   1.0321894      0.00636303     1.0004049     -0.024107073  
    227000   0.93053998     0.0061959767   0.89965547    -0.023963136  
    228000   1.0239603      0.0058267575   0.99338563    -0.022958472  
    229000   0.98378029     0.0066227697   0.95132001    -0.025142908  
    230000   1.0347546      0.0054485786   1.0082411     -0.018816906  
    231000   0.99194846     0.0070971987   0.96922044    -0.015349895  
    232000   0.99906895     0.0063673399   0.98097783    -0.010660029  
    233000   1.0489021      0.0068642591   1.0294259     -0.011674432  
    234000   1.0149648      0.0066383169   0.99940387    -0.0080116053 
    235000   1.0499913      0.0071812358   1.0262331     -0.015948417  
    236000   1.046624       0.0059195993   1.0249457     -0.013893413  
    237000   0.98418239     0.0061271756   0.95886352    -0.017998511  
    238000   1.0028724      0.0059656473   0.9861173     -0.0092957392 
    239000   1.0111331      0.0072910953   0.99974496    -0.0038673278 
    240000   0.97345547     0.0058074484   0.95737108    -0.0088438075 
    241000   0.98917492     0.0056802897   0.9720411     -0.0097763236 
    242000   0.94080595     0.0047001117   0.9166399     -0.017168324  
    243000   1.0307225      0.0065314123   1.0048024     -0.018253642  
    244000   0.99884079     0.0058777735   0.98088552    -0.010525876  
    245000   0.95969065     0.0060359877   0.93160355    -0.020948903  
    246000   1.0269844      0.0057039307   1.0001952     -0.019150502  
    247000   0.98633174     0.0064347431   0.96669852    -0.012296868  
    248000   0.95224453     0.0063276935   0.93523998    -0.0099217368 
    249000   0.95582517     0.0058701326   0.93117045    -0.017545269  
    250000   1.0545263      0.0053513002   1.0410267     -0.0056560687 
    251000   0.99904504     0.0070742271   0.98668641    -0.0049277179 
    252000   0.95052873     0.0056620252   0.93825103    -0.0052076569 
    253000   1.0040737      0.0058552691   0.98821438    -0.0083910087 
    254000   1.0009634      0.0062561442   0.9840775     -0.0094406654 
    255000   1.0497133      0.0073325934   1.0325149     -0.0093906577 
    256000   1.0110219      0.0065221007   0.99509813    -0.0084037475 
    257000   0.95966801     0.0069877736   0.94726212    -0.0052678585 
    258000   1.0260896      0.0057323437   1.0091356     -0.0093219593 
    259000   1.0404994      0.006388409    1.0247643     -0.0079958513 
    260000   0.93003973     0.0051701886   0.91150671    -0.011615363  
    261000   1.032165       0.0066365947   1.0152989     -0.0091888272 
    262000   0.9546832      0.0058807491   0.93877937    -0.0088028814 
    263000   1.0328144      0.0065181173   1.0163934     -0.0087389138 
    264000   0.94020329     0.0056245528   0.9179054     -0.015304648  
    265000   0.98748893     0.0070000725   0.96163606    -0.018507914  
    266000   0.97671504     0.005860309    0.95632614    -0.013124079  
    267000   0.98151231     0.0065435206   0.96029579    -0.013916008  
    268000   1.0314232      0.0064603241   1.0079305     -0.01582096   
    269000   1.0361248      0.0060233862   1.0067806     -0.021637529  
    270000   1.0413281      0.0069440361   1.0122739     -0.021308812  
    271000   1.0204639      0.0052929294   0.9899995     -0.022874158  
    272000   0.99993598     0.0058095197   0.98443741    -0.0080610273 
    273000   1.0150951      0.0055819511   0.989465      -0.018079796  
    274000   1.0272386      0.0055081119   1.0138971     -0.0057009343 
    275000   0.94657662     0.0060700032   0.92162725    -0.017908722  
    276000   1.017642       0.0066021615   0.98640746    -0.023665327  
    277000   1.0553021      0.0068500123   1.0304003     -0.017052494  
    278000   0.95436157     0.0063489747   0.92457886    -0.022684154  
    279000   0.96834941     0.0049746596   0.93751098    -0.023635836  
    280000   1.1055099      0.0066941093   1.0757038     -0.021583359  
    281000   1.0416117      0.0071494667   1.0126262     -0.021238001  
    282000   1.0578861      0.0072035025   1.0265882     -0.023429293  
    283000   0.99541106     0.0063356268   0.96403695    -0.023970227  
    284000   0.95629089     0.0057248346   0.93783274    -0.011345246  
    285000   0.99132387     0.0058285429   0.9647227     -0.019227687  
    286000   0.94107994     0.0051712874   0.92109604    -0.012984134  
    287000   0.9946948      0.0058536304   0.97564542    -0.011650823  
    288000   0.9305633      0.0062238556   0.9196841     -0.0039576547 
    289000   1.011436       0.0062732063   0.99558304    -0.0083298736 
    290000   1.0357368      0.007611738    1.0103224     -0.017710599  
    291000   1.0073478      0.0067277895   0.99089641    -0.0089586684 
    292000   1.0888684      0.0064418731   1.0704107     -0.010358701  
    293000   0.96765264     0.0062027185   0.94606703    -0.014388195  
    294000   1.0195796      0.0062366215   0.99803051    -0.013965466  
    295000   0.98614351     0.0066760964   0.9688632     -0.0099453566 
    296000   0.95202764     0.006005017    0.93205217    -0.012894275  
    297000   0.96247155     0.0060276576   0.94732442    -0.0079882512 
    298000   1.0655882      0.0072846486   1.0436979     -0.013964438  
    299000   1.0752421      0.0067413217   1.0523233     -0.014921051  
    300000   0.9604129      0.0069901437   0.94509656    -0.0081727765 
    301000   1.0346567      0.0070089042   1.0059497     -0.021011258  
    302000   1.0291387      0.0058433366   1.0081401     -0.013343829  
    303000   0.93757452     0.0052158525   0.92036842    -0.010232406  
    304000   0.96641114     0.0058705953   0.94599336    -0.013229594  
    305000   0.94774115     0.006232187    0.93137059    -0.009321254  
    306000   0.92278083     0.0061518917   0.90022874    -0.015688431  
    307000   0.95393056     0.0060304775   0.93797591    -0.0088593034 
    308000   0.97673833     0.006111776    0.95300981    -0.016463522  
    309000   0.96828565     0.0058416566   0.9496946     -0.011388926  
    310000   0.97348011     0.0063585511   0.95281747    -0.01342188   
    311000   0.98087761     0.0051564628   0.95691965    -0.016662179  
    312000   0.97660608     0.0059515204   0.95878202    -0.010560048  
    313000   0.95739082     0.0064163264   0.9243018     -0.025967936  
    314000   1.1297289      0.0064042628   1.1070432     -0.014282739  
    315000   1.0660849      0.0066659111   1.0450474     -0.013107975  
    316000   1.0331376      0.0070304987   1.0088508     -0.01660234   
    317000   1.0091127      0.0051546292   0.98826225    -0.013344645  
    318000   0.98444006     0.0065115226   0.96470841    -0.012409369  
    319000   0.96159952     0.006058949    0.94454914    -0.0098979915 
    320000   0.97983107     0.0070302887   0.96287116    -0.0096719125 
    321000   1.075833       0.0070847499   1.052851      -0.01497995   
    322000   0.97803132     0.0064517209   0.9537295     -0.017027202  
    323000   1.0055657      0.007107684    0.97439845    -0.023687795  
    324000   0.9947022      0.0052718302   0.97099379    -0.016309797  
    325000   0.94866145     0.0052168661   0.93491135    -0.0066939466 
    326000   1.0530215      0.0059128304   1.0313449     -0.013844246  
    327000   0.96467383     0.0065114855   0.95235463    -0.0051439394 
    328000   0.98741569     0.0058339102   0.96747268    -0.012598597  
    329000   1.0369851      0.0065340031   1.020236      -0.0090360063 
    330000   1.0245369      0.0061599164   1.0057893     -0.011127069  
    331000   1.0220071      0.0057753843   1.002123      -0.012282469  
    332000   0.99103101     0.0057367276   0.97330934    -0.010350359  
    333000   1.0764662      0.0069600344   1.0582726     -0.010186902  
    334000   1.042091       0.0058956591   1.0222632     -0.012076731  
    335000   0.98454036     0.0054460995   0.96464771    -0.012569626  
    336000   0.93863613     0.0074521089   0.91413345    -0.01752109   
    337000   0.95111831     0.0060156552   0.94041038    -0.0036335053 
    338000   0.99509383     0.0054600955   0.97770277    -0.0099895307 
    339000   1.0077163      0.0056873887   0.98470867    -0.015512259  
    340000   1.0336126      0.0061098866   1.0162969     -0.0096276469 
    341000   1.0559097      0.0068454661   1.035795      -0.012260855  
    342000   0.97486216     0.0058964639   0.95316107    -0.014450043  
    343000   0.97529198     0.0066735405   0.95666527    -0.011372474  
    344000   1.0074617      0.0068205927   0.99442643    -0.0055417345 
    345000   1.0079872      0.0063083357   0.98933237    -0.01115745   
    346000   1.0785353      0.007160195    1.0593846     -0.011128551  
    347000   0.94898974     0.0056700237   0.93590623    -0.0060249074 
    348000   0.99167968     0.0060590991   0.97188863    -0.012414918  
    349000   0.99295629     0.0060129048   0.97095895    -0.01461171   
    350000   1.0296408      0.0065494509   1.0151197     -0.0068625527 
    351000   1.0027543      0.0065570039   0.97283254    -0.022463228  
    352000   0.96030202     0.0055051449   0.92796646    -0.025192811  
    353000   0.97784036     0.0065848152   0.93786468    -0.03270249   
    354000   1.0683325      0.0060749788   1.0301765     -0.030209712  
    355000   1.0232088      0.005974455    0.99620688    -0.019391256  
    356000   1.0263679      0.0060786101   1.0025744     -0.016159347  
    357000   0.98629543     0.0060657062   0.97281528    -0.0061440751 
    358000   0.97120332     0.0071315191   0.95153837    -0.012441125  
    359000   0.9893652      0.0061677879   0.96765402    -0.014352262  
    360000   0.98329885     0.0050187658   0.97146462    -0.004520437  
    361000   0.96301967     0.0064810368   0.95123617    -0.004620538  
    362000   0.95804067     0.0055196075   0.94121248    -0.0097022648 
    363000   0.95824463     0.0048686237   0.94342308    -0.0076941104 
    364000   0.94585597     0.0050776241   0.93608945    -0.0027312237 
    365000   1.0658318      0.0061161476   1.0552228     -0.002681256  
    366000   1.0110023      0.0063662126   0.99852381    -0.0049586777 
    367000   1.0310566      0.0063865767   1.0137426     -0.0096449283 
    368000   0.96360411     0.0050160147   0.95385385    -0.0025829595 
    369000   1.0386734      0.005962364    1.0211863     -0.009761453  
    370000   1.0466524      0.0059551491   1.0340527     -0.0048147639 
    371000   1.0277715      0.0063602666   1.0200184     -0.00010855951
    372000   0.96808505     0.0066526685   0.96224231     0.0013578905 
    373000   0.98986633     0.0062992035   0.96433843    -0.018165252  
    374000   0.9028647      0.0057555163   0.88083288    -0.015316301  
    375000   0.99928048     0.0063936678   0.97657669    -0.015271124  
    376000   0.99113989     0.0054136586   0.96283973    -0.020928049  
    377000   0.97199028     0.0060001226   0.95267267    -0.012087932  
    378000   1.0228412      0.0059634439   1.0028567     -0.012376566  
    379000   0.99426324     0.0055559708   0.97031137    -0.01655652   
    380000   1.0728827      0.0067709067   1.0437969     -0.021105648  
    381000   0.99020347     0.0057902739   0.95307593    -0.029762389  
    382000   1.0258516      0.006597904    0.99087031    -0.027350996  
    383000   0.98299872     0.0064255933   0.94990906    -0.025778098  
    384000   0.98548232     0.0063341121   0.96317728    -0.014975007  
    385000   1.0578274      0.0081359765   1.0270208     -0.02293852   
    386000   0.99625471     0.0065953046   0.95679833    -0.032046231  
    387000   0.95713115     0.0058655292   0.93000451    -0.020007475  
    388000   1.0224616      0.0053698463   0.99336844    -0.02148805   
    389000   1.0802241      0.0059710823   1.0578372     -0.01435223   
    390000   0.94527849     0.0064169024   0.91732614    -0.02092135   
    391000   0.99328248     0.0057625949   0.97661209    -0.0092823368 
    392000   0.98578798     0.0064004242   0.96294085    -0.015514819  
    393000   1.0530509      0.0065135803   1.0273529     -0.017865481  
    394000   0.94382231     0.0054822914   0.93027029    -0.0065318568 
    395000   1.0113827      0.0059294039   0.98742644    -0.016433561  
    396000   1.0496024      0.0071174817   1.019482      -0.022313408  
    397000   0.96549296     0.0056205802   0.93672263    -0.021588982  
    398000   1.0024164      0.0061494172   0.97425044    -0.020709955  
    399000   1.0128947      0.0068326761   0.98813106    -0.017229691  
    400000   1.0163857      0.0051954137   0.98922199    -0.019603794  
    401000   1.0732093      0.0069908719   1.0399857     -0.025241028  
    402000   1.0160307      0.0070451776   0.99485675    -0.013616675  
    403000   0.99026229     0.0069835766   0.97198936    -0.010907339  
    404000   0.91576563     0.0046532276   0.89761792    -0.011336227  
    405000   0.9824673      0.0059265996   0.96822679    -0.0069329081 
    406000   0.93452207     0.0055351346   0.91860363    -0.0089674589 
    407000   0.99671056     0.0066797069   0.97838656    -0.010910452  
    408000   0.96137732     0.0060608888   0.93315822    -0.021068357  
    409000   1.0891604      0.0074161027   1.0649051     -0.016154158  
    410000   1.0026401      0.0065092366   0.9627183     -0.032464191  
    411000   1.0426184      0.0066334476   0.99894287    -0.035920507  
    412000   1.0199746      0.0053495477   0.99922917    -0.013158818  
    413000   0.94987775     0.0060250004   0.91993288    -0.022879661  
    414000   1.0216491      0.007333286    0.98917884    -0.024871168  
    415000   0.98354999     0.0055478269   0.94773944    -0.028494894  
    416000   0.95147871     0.0056195768   0.92146209    -0.02293951   
    417000   1.0378094      0.0068895297   1.0212157     -0.0088744754 
    418000   1.0012964      0.0064684843   0.96896472    -0.024884055  
    419000   0.98635465     0.0054788081   0.96060017    -0.018417952  
    420000   1.0092792      0.0057160307   0.99015417    -0.011617962  
    421000   1.0175206      0.005863527    0.99434837    -0.015603924  
    422000   1.0679559      0.0060055178   1.0473628     -0.012649589  
    423000   1.0645481      0.0056206217   1.0336911     -0.022938889  
    424000   1.0238603      0.0058809029   1.0014736     -0.014771188  
    425000   0.99158004     0.0059671876   0.96691981    -0.017284841  
    426000   0.98195196     0.0059406537   0.96051679    -0.014131401  
    427000   1.0066513      0.0057871424   0.99136552    -0.0077982584 
    428000   0.9880011      0.0062952521   0.96613404    -0.014518291  
    429000   0.99539739     0.0061055378   0.96928195    -0.018711665  
    430000   0.9492234      0.0062503404   0.92922919    -0.012933876  
    431000   0.96952768     0.0058218668   0.94936991    -0.012946415  
    432000   1.0614284      0.0059813755   1.0405095     -0.013023919  
    433000   1.0485913      0.0057371158   1.0223563     -0.01843557   
    434000   1.0512302      0.0052190965   1.0214885     -0.02192268   
    435000   0.97929009     0.006259713    0.95166911    -0.020337006  
    436000   1.0032343      0.0059427804   0.98592647    -0.0098457998 
    437000   0.95302318     0.0059165891   0.92842687    -0.017507708  
    438000   0.95718584     0.0055420879   0.93670224    -0.013364035  
    439000   1.0120379      0.0068787581   0.99106778    -0.013442615  
    440000   0.9481971      0.0060036952   0.93171087    -0.0094335214 
    441000   0.96858506     0.0063289641   0.95107815    -0.010302559  
    442000   1.055419       0.0070948262   1.0356649     -0.011903881  
    443000   1.0255924      0.0064661717   0.99948596    -0.018478067  
    444000   0.96831171     0.0053608181   0.94233429    -0.018775101  
    445000   1.0876228      0.0067532337   1.0623785     -0.017154496  
    446000   0.94500992     0.0057207855   0.9241536     -0.013827314  
    447000   0.96746755     0.0056426277   0.94093019    -0.019341325  
    448000   1.0229794      0.00634018     0.99209757    -0.023272875  
    449000   1.0507635      0.007530663    1.0305848     -0.012363084  
    450000   0.95935846     0.0069487279   0.94239148    -0.0098312634 
    451000   0.99710174     0.0071559373   0.97543025    -0.014255031  
    452000   0.96829363     0.0050212429   0.95613277    -0.0049586777 
    453000   0.98105341     0.0062505995   0.9573597     -0.016396623  
    454000   0.98484202     0.0054779241   0.9746856     -0.0028311468 
    455000   0.98784716     0.0061006388   0.97543695    -0.0050625862 
    456000   0.99585457     0.0059014446   0.9839539     -0.0044934926 
    457000   1.0166203      0.0063513101   1.005283      -0.003775625  
    458000   0.94922162     0.0058276782   0.93284264    -0.0093186522 
    459000   0.98304926     0.0048677301   0.97077864    -0.0049586777 
    460000   1.0438198      0.0059176096   1.0322113     -0.003844548  
    461000   1.1252362      0.0071528435   1.1060029     -0.010863785  
    462000   1.0954043      0.0063197267   1.0789906     -0.0082660791 
    463000   1.0148121      0.0067443443   1.0032579     -0.0040060724 
    464000   1.0416188      0.0068000891   1.019101      -0.014770221  
    465000   1.0459871      0.0055676989   1.0323298     -0.0058772047 
    466000   0.95369864     0.004888694    0.94165611    -0.0049488979 
    467000   0.92232425     0.006171365    0.90830639    -0.0071575967 
    468000   1.0252917      0.0073408759   1.0019738     -0.015691788  
    469000   0.98645068     0.0073222015   0.96691989    -0.012193552  
    470000   0.98049071     0.0050148951   0.96341904    -0.0097787643 
    471000   1.0177978      0.0052279587   1.0052726     -0.0049548365 
    472000   1.0249472      0.0062768894   1.0034353     -0.013888389  
    473000   0.99585199     0.0056417277   0.97750658    -0.010938246  
    474000   1.0448291      0.0082897448   1.0324525     -0.0046051319 
    475000   1.0280976      0.0064765886   1.0105845     -0.0098661066 
    476000   1.0247866      0.0072288431   1.0128715     -0.0042927381 
    477000   1.0079243      0.0059226      0.99109854    -0.009328841  
    478000   1.0152602      0.006231609    0.99957013    -0.0081385322 
    479000   0.92419588     0.0057985507   0.90892273    -0.0083989694 
    480000   1.0096332      0.0052935807   0.99718407    -0.0049394975 
    481000   0.96245943     0.0060219874   0.95530064     0            
    482000   1.0172144      0.0061981251   1.00695       -0.0026983138 
    483000   1.0004774      0.0065374902   0.98811659    -0.004919223  
    484000   0.92173373     0.0050367548   0.9124116     -0.0024662622 
    485000   1.0329212      0.004982442    1.0202797     -0.0049586777 
    486000   0.96304226     0.0069097316   0.94702783    -0.0088513124 
    487000   0.89233895     0.0053277744   0.87597722    -0.0097244952 
    488000   0.97034914     0.0065581394   0.95334992    -0.009781747  
    489000   0.99670821     0.0059695111   0.98486652    -0.0044281531 
    490000   0.94968659     0.0061794733   0.93781798    -0.0048048238 
    491000   1.0186591      0.0064768708   1.0053969     -0.0056854252 
    492000   0.95866014     0.0064492088   0.94133544    -0.010194168  
    493000   1.0291701      0.0060606903   1.0136287     -0.0078864272 
    494000   0.95955369     0.0063217088   0.94858023    -0.0038362869 
    495000   1.0040025      0.0057994057   0.98220557    -0.014329171  
    496000   1.0073482      0.0052084215   0.99153653    -0.0083189554 
    497000   0.94701995     0.0056149813   0.93914338    -0.00083261906
    498000   1.0347776      0.0063733842   1.021961      -0.0051199699 
    499000   0.98073518     0.0061469202   0.96848178    -0.0049586777 
    500000   1.0351065      0.0067184887   1.0231661     -0.0042412852 
    501000   1.0608549      0.0067823416   1.047791      -0.0051732492 
    502000   1.0278898      0.0067050006   1.0118099     -0.0084344298 
    503000   0.98938101     0.0061739313   0.96838284    -0.013639132  
    504000   0.94238358     0.0055215715   0.93132427    -0.0040498413 
    505000   1.0173338      0.0062399011   1.0090149     -0.00075198859
    506000   0.94447678     0.0060512832   0.92818376    -0.0092679828 
    507000   1.0192871      0.0061236005   0.99813702    -0.013568578  
    508000   0.95486868     0.0057980276   0.93432932    -0.013437038  
    509000   0.98451042     0.0049350863   0.96733509    -0.0098525207 
    510000   0.9904445      0.0048127996   0.97232471    -0.010752845  
    511000   0.98447319     0.0056205249   0.95777208    -0.019378582  
    512000   0.97917396     0.0060283209   0.95522175    -0.016669094  
    513000   0.96926003     0.0057891709   0.94628411    -0.01576655   
    514000   0.99906452     0.0062032663   0.96961722    -0.022016237  
    515000   1.1261441      0.0063537841   1.1010465     -0.016721356  
    516000   1.0266692      0.0071478451   1.0077587     -0.011274116  
    517000   1.0247722      0.0061109349   0.99791855    -0.019231399  
    518000   0.95653408     0.0064993166   0.92882794    -0.020591415  
    519000   1.0386759      0.0065981194   1.0180919     -0.012858264  
    520000   0.9954395      0.0058707865   0.97720244    -0.010832966  
    521000   0.96726061     0.0064483053   0.94555437    -0.014511739  
    522000   1.0310383      0.006983187    1.0047756     -0.018593821  
    523000   0.98922243     0.0059716808   0.96606712    -0.015797457  
    524000   0.97299912     0.0060575714   0.95787339    -0.0078885499 
    525000   0.96784441     0.0063981697   0.95635159    -0.0042939759 
    526000   0.99973957     0.0055094804   0.9923035      0            
    527000   0.98481455     0.0048229875   0.97748948     0            
    528000   0.96671906     0.0060342288   0.95952859     0            
    529000   0.9790559      0.0065822064   0.96987391    -0.001899754  
    530000   1.0034275      0.0071423505   0.98320835    -0.012755658  
    531000   1.0534828      0.006633276    1.0343515     -0.011295465  
    532000   1.0151572      0.0065803474   1.0027797     -0.0048267514 
    533000   0.95584113     0.0053094947   0.94531547    -0.0034161016 
    534000   0.93924509     0.0065676668   0.93225897     0            
    535000   0.98105482     0.0060547565   0.97375772     0            
    536000   0.92935411     0.0048104822   0.91446104    -0.0079805182 
    537000   1.037913       0.0064424641   1.028923      -0.001270028  
    538000   1.0594963      0.0063291259   1.0516157     -5.3473598e-08
    539000   1.0013423      0.0051190308   0.99389433     0            
    540000   0.95943448     0.0054417972   0.9489265     -0.0033716937 
    541000   0.99623173     0.0059579924   0.98377956    -0.0050421862 
    542000   0.92624866     0.0067158298   0.91445909    -0.0049001218 
    543000   1.0524816      0.006756294    1.0372465     -0.0074066831 
    544000   1.0018905      0.0063186116   0.98614973    -0.0082886586 
    545000   1.0159728      0.0061021026   1.0036137     -0.0048022662 
    546000   0.95133231     0.0064129962   0.94125791    -0.0029983713 
    547000   1.124496       0.0072339911   1.1112055     -0.0049265274 
    548000   1.0959879      0.0073347667   1.0788654     -0.0089704551 
    549000   0.93798195     0.0062057824   0.93045844    -0.00054678467
    550000   1.0229554      0.0061823841   1.0112811     -0.0040655218 
    551000   1.0149357      0.0048666376   1.006856      -0.00053058567
    552000   1.0056861      0.0060610475   0.99463511    -0.0035706748 
    553000   0.94500727     0.0064156481   0.93355107    -0.0044272232 
    554000   0.98814192     0.0058596726   0.97755157    -0.0032405301 
    555000   1.0632581      0.0058640174   1.0570293      0.0016797473 
    556000   0.99517732     0.0068330226   0.98335424    -0.0044209262 
    557000   1.0167402      0.0061747729   1.0027403     -0.0064373746 
    558000   0.97836776     0.006520646    0.97109064     0            
    559000   0.9631369      0.007110961    0.94962257    -0.0063505078 
    560000   1.0103065      0.0066601015   0.99858532    -0.004206484  
    561000   0.93335723     0.0059321815   0.91746343    -0.0089514753 
    562000   0.97414623     0.00654919     0.95789058    -0.0090099391 
    563000   1.0347192      0.0064674837   1.0243944     -0.0026285745 
    564000   0.96492465     0.0054488107   0.94864833    -0.0090991992 
    565000   1.0810277      0.0066746037   1.0681738     -0.0048132009 
    566000   0.99341837     0.0060794556   0.98346355    -0.0025657553 
    567000   1.0564089      0.0054132957   1.0411022     -0.0074490888 
    568000   1.0362586      0.0069790408   1.0197625     -0.0087883347 
    569000   0.99297135     0.0069808554   0.97716413    -0.00842148   
    570000   0.95047233     0.0047939105   0.93873082    -0.0046718783 
    571000   0.95072825     0.0057329921   0.93497941    -0.0086773098 
    572000   1.0055757      0.005830056    0.99376715    -0.0043290206 
    573000   1.0013206      0.0065351154   0.98140525    -0.012467558  
    574000   1.0445908      0.0075190446   1.0244078     -0.012413306  
    575000   0.96298049     0.005222973    0.94950485    -0.0063129753 
    576000   1.0486184      0.0061617931   1.0270164     -0.013802417  
    577000   0.95316129     0.0061811106   0.94123413    -0.004837532  
    578000   1.0354238      0.0062424978   1.0205913     -0.0071310693 
    579000   1.0242925      0.0077332328   1.006792      -0.0098817984 
    580000   1.0249874      0.0056968919   1.0102003     -0.0071632133 
    581000   0.97311887     0.0066888198   0.96049037    -0.0053904254 
    582000   1.0236246      0.0054765734   1.0040538     -0.011957065  
    583000   0.98520578     0.006585934    0.96702016    -0.010857641  
    584000   0.93742505     0.0057393731   0.91942048    -0.011031988  
    585000   1.0688873      0.0071112696   1.0456969     -0.015239916  
    586000   1.0101337      0.0060839518   0.99329558    -0.0093247361 
    587000   0.95483907     0.0061165362   0.93804915    -0.0096878099 
    588000   0.93342154     0.0055385456   0.90902783    -0.017450901  
    589000   0.97261386     0.0061506575   0.94841029    -0.016969259  
    590000   1.0531275      0.0067556417   1.0227915     -0.022502821  
    591000   1.0242239      0.0060272426   0.99504468    -0.021561018  
    592000   0.98709003     0.0057376729   0.96167236    -0.01807568   
    593000   0.96807271     0.0051415648   0.95107277    -0.0097993957 
    594000   0.99464184     0.0054684464   0.97863569    -0.0086079858 
    595000   1.0120659      0.0066186128   1.0009516     -0.0035865504 
    596000   1.0705686      0.0062967616   1.0517586     -0.010847084  
    597000   0.99375024     0.0054322937   0.97286444    -0.013494274  
    598000   0.97351342     0.0060588127   0.95048484    -0.015787566  
    599000   1.0068108      0.0061053872   0.97854553    -0.02077662   
    600000   1.0000976      0.0072065747   0.97834932    -0.014309561  
    601000   0.99523096     0.0056291689   0.97461475    -0.013213668  
    602000   1.0016424      0.0052288552   0.98156397    -0.012628172  
    603000   1.0179522      0.0058130751   0.99743751    -0.012943112  
    604000   0.95857312     0.0056615293   0.94948122    -0.0019620143 
    605000   0.97442411     0.005973267    0.95513717    -0.012039151  
    606000   1.0405168      0.0063628065   1.0231234     -0.0096540302 
    607000   0.96809353     0.0068427924   0.9479729     -0.012919935  
    608000   1.0177659      0.0068722134   1.0041706     -0.0060251228 
    609000   0.97514699     0.0063469752   0.95805305    -0.00984078   
    610000   0.9744261      0.0048332913   0.95325045    -0.013927852  
    611000   1.0086227      0.006668741    0.98437545    -0.01674512   
    612000   0.95373319     0.0056434014   0.93170161    -0.014937698  
    613000   1.0398633      0.0064609743   1.013415      -0.018713785  
    614000   1.0216902      0.0057227128   0.99337002    -0.020720789  
    615000   1.0104661      0.007159674    0.99603043    -0.0069197726 
    616000   0.96110218     0.0053723448   0.9418812     -0.012072292  
    617000   0.98906766     0.006452908    0.97172437    -0.0099865847 
    618000   0.93022966     0.0054181824   0.90154875    -0.021761854  
    619000   0.9725997      0.0065516949   0.94719345    -0.018172036  
    620000   0.98833248     0.005730886    0.96920637    -0.011774875  
    621000   1.0272581      0.0072354676   0.99836554    -0.021251748  
    622000   0.97999764     0.006391085    0.95977817    -0.01293023   
    623000   1.0428108      0.0065672211   1.0160172     -0.019037171  
    624000   0.96108886     0.0056927602   0.94069557    -0.013244688  
    625000   0.91188582     0.0062791256   0.9009819     -0.0041213    
    626000   1.0104484      0.0068816622   0.99070306    -0.012229585  
    627000   1.0882037      0.0061229625   1.0678168     -0.012292751  
    628000   0.98921285     0.0056575089   0.97232376    -0.0095313058 
    629000   0.94862187     0.0052890988   0.93647675    -0.0050892601 
    630000   0.99900201     0.0070112614   0.97950265    -0.012068774  
    631000   0.97809379     0.0058454988   0.96822704    -0.0025916698 
    632000   0.96544082     0.0061957444   0.95065927    -0.0076005898 
    633000   0.99238028     0.0062002258   0.9752966     -0.0097023368 
    634000   1.0543934      0.0077109859   1.0418241     -0.0047267603 
    635000   1.0170952      0.0058532943   1.0047329     -0.0047970671 
    636000   0.9612489      0.0059874791   0.94453689    -0.0095622243 
    637000   0.94150381     0.0043911258   0.92982523    -0.0046756566 
    638000   1.019964       0.0061301204   1.0047607     -0.0076167669 
    639000   1.0185772      0.0058652704   1.0038145     -0.007186548  
    640000   0.95125201     0.005307034    0.9399587     -0.0042178826 
    641000   0.99113456     0.0064954001   0.98376249     0            
    642000   0.98411252     0.0059366223   0.9744225     -0.0023701792 
    643000   0.98558568     0.0059999745   0.97330332    -0.0049515597 
    644000   1.0164565      0.0069852537   1.0028686     -0.0060274694 
    645000   1.0008437      0.0058206776   0.9879219     -0.0054775142 
    646000   1.0106598      0.0067928771   0.99421532    -0.008927167  
    647000   0.98749505     0.0057185295   0.97474607    -0.0054039686 
    648000   0.98194425     0.0057656917   0.96407098    -0.010569554  
    649000   1.0079878      0.0062385711   0.99592861    -0.0045617393 
    650000   0.9858057      0.0063510257   0.97366949    -0.0048037663 
    651000   0.98923612     0.0068598839   0.97770166    -0.0041764985 
    652000   1.0271176      0.0058524147   1.0179488     -0.0015291271 
    653000   0.99887794     0.00665031     0.99144827     0            
    654000   1.0056501      0.00636293     0.9988757      0.00070566585
    655000   0.93947238     0.0055285025   0.93230663    -0.00017794073
    656000   0.93618913     0.0050436201   0.93002277     0.00079702689
    657000   0.97329985     0.0056533454   0.95667921    -0.009381223  
    658000   1.0321572      0.0061831576   1.0206059     -0.0038741339 
    659000   1.0088122      0.0064698203   0.99178619    -0.0095223997 
    660000   1.0085139      0.005914857    0.9878883     -0.0131243    
    661000   1.0157054      0.0057628886   0.99738644    -0.010764096  
    662000   0.92728041     0.0054937098   0.90762335    -0.012759936  
    663000   1.0209847      0.0057530763   0.99950264    -0.013887944  
    664000   1.0048182      0.0062244281   0.97995434    -0.017390015  
    665000   1.0305537      0.0078643793   1.004558      -0.018330406  
    666000   0.94582963     0.0055943545   0.9202332     -0.018561339  
    667000   1.0584638      0.0060480332   1.0388626     -0.011728265  
    668000   0.95516843     0.0058584671   0.93253159    -0.015532285  
    669000   1.0299189      0.0058693585   1.0062696     -0.01598876   
    670000   1.0045896      0.0063064746   0.98233959    -0.014777822  
    671000   0.99766452     0.0061165972   0.97884507    -0.011398812  
    672000   1.0443624      0.0070400058   1.0275374     -0.0090569557 
    673000   1.0506968      0.0059971339   1.0245896     -0.018292075  
    674000   0.97974568     0.0055916948   0.95592858    -0.016529731  
    675000   1.0255865      0.006459786    1.004945      -0.013013236  
    676000   0.93155152     0.0049053108   0.90876073    -0.015861897  
    677000   1.0027988      0.0059530671   0.98213944    -0.013200538  
    678000   1.0210696      0.0067528722   0.99864666    -0.014828257  
    679000   1.0055738      0.0072712896   0.99178036    -0.0063139411 
    680000   1.0128448      0.006531659    0.99073465    -0.014576585  
    681000   0.95879268     0.0055442675   0.94277425    -0.0088869138 
    682000   0.89594877     0.0051842778   0.88217856    -0.0071061269 
    683000   0.99429241     0.0065682052   0.97741631    -0.0094805328 
    684000   1.0466653      0.0060875209   1.0351901     -0.0036901193 
    685000   0.98272735     0.0060465528   0.96671593    -0.0087018861 
    686000   0.93426309     0.0054960689   0.91710276    -0.010211264  
    687000   0.96159654     0.0056945619   0.94647195    -0.0079722148 
    688000   1.0137459      0.0063631879   1.0020176     -0.0041880568 
    689000   1.0008845      0.0053866666   0.99273437    -0.00070556883
    690000   1.0123799      0.0061148886   0.99124152    -0.013608304  
    691000   0.96821635     0.006178219    0.95259222    -0.0084225158 
    692000   1.0070141      0.0059179074   0.99476357    -0.0047603801 
    693000   1.0095275      0.0058314078   0.99730217    -0.0047164079 
    694000   0.9863604      0.0068590707   0.9772469     -0.0017769383 
    695000   0.91568812     0.0056394031   0.90452243    -0.004354788  
    696000   1.0532963      0.0069591126   1.0457501      0.00028819169
    697000   0.94568346     0.0051233821   0.9349415     -0.0037079509 
    698000   0.93761727     0.0062671819   0.92709826    -0.0035449997 
    699000   0.99677136     0.0050752596   0.98935736     0            
    700000   0.99426399     0.0073506793   0.98376902    -0.0030996172 
    701000   1.0333013      0.0061051155   1.0245354     -0.0010801618 
    702000   1.0727288      0.0055469832   1.0601324     -0.0046174546 
    703000   1.0878588      0.0069382325   1.0772613     -0.0025060835 
    704000   1.0273871      0.0057488554   1.0166521     -0.0030933519 
    705000   1.0234161      0.0073291233   1.0135312     -0.0022727985 
    706000   1.0148032      0.0066694444   1.0024212     -0.0048338821 
    707000   1.0768012      0.0062028939   1.0645625     -0.0042294482 
    708000   0.96834671     0.006547797    0.95567754    -0.0054665852 
    709000   0.98579495     0.0066434085   0.96858612    -0.0098764623 
    710000   1.0432992      0.007322108    1.0305856     -0.0049535783 
    711000   1.0820102      0.0061107097   1.0748937      0.00093157053
    712000   0.9982766      0.0064016731   0.98589272    -0.0049586777 
    713000   1.0979631      0.0070992876   1.0897963     -1.7031748e-07
    714000   1.0204415      0.0071455548   1.008487      -0.0043644198 
    715000   0.96155122     0.0051911407   0.94944293    -0.0049562606 
    716000   1.0242231      0.0059703587   1.0066875     -0.0099173554 
    717000   1.0134324      0.0062423405   0.99948355    -0.0064109654 
    718000   1.0391162      0.0067713632   1.0264286     -0.0049586777 
    719000   0.98898329     0.0050229506   0.98162722     0            
    720000   1.0314794      0.004917975    1.0238073      0            
    721000   0.94137343     0.0054902378   0.9346061      0.0002346267 
    722000   1.0543085      0.0068285556   1.0464665      0            
    723000   0.94591785     0.0058401213   0.93888209     0            
    724000   0.99500978     0.0059817222   0.98760888     0            
    725000   0.96789002     0.0061501646   0.95983821    -0.00085262646
    726000   1.0031612      0.0058329418   0.99131295    -0.0043866947 
    727000   1.0128723      0.0064843127   1.0053332     -5.2658919e-06
    728000   0.95248776     0.0057528105   0.94661742     0.0012142769 
    729000   1.0351747      0.0062203586   1.0274751      0            
    730000   0.99919433     0.0058849663   0.98797264    -0.0037896605 
    731000   1.0290559      0.0059562199   1.0116326     -0.0097691637 
    732000   1.0234867      0.005700603    1.0060053     -0.0098687416 
    733000   0.99906527     0.0057708309   0.98791028    -0.003723925  
    734000   0.99988968     0.006343713    0.98687182    -0.0055806618 
    735000   1.0070776      0.0061390378   0.99007535    -0.0095116188 
    736000   0.94404799     0.006346327    0.92439678    -0.01262937   
    737000   0.98687884     0.0064585443   0.96871292    -0.010825493  
    738000   1.0247044      0.0063762039   1.0135458     -0.0035368367 
    739000   1.007736       0.0049132233   1.0002377     -2.824006e-06 
    740000   0.9366163      0.0060079801   0.92431673    -0.0053330023 
    741000   1.0044572      0.0055759044   0.99698607     0            
    742000   0.96774914     0.0066193971   0.96055101     0            
    743000   1.0100802      0.0060688299   0.9987765     -0.0037906918 
    744000   0.97373194     0.0066747857   0.9619435     -0.004545806  
    745000   1.0147302      0.0068405681   1.0030407     -0.0041419443 
    746000   0.9932276      0.0055515712   0.98159712    -0.0042428404 
    747000   0.95592122     0.0069103632   0.94001234    -0.0087987239 
    748000   0.94950772     0.0055411614   0.93297568    -0.0094695835 
    749000   1.0484522      0.0059662278   1.0194585     -0.021195283  
    750000   0.98918513     0.005955394    0.96731829    -0.01450926   
    751000   1.0412902      0.0061001449   1.0197588     -0.013786248  
    752000   1.0484675      0.0069118633   1.0305202     -0.010148807  
    753000   1.0683233      0.0060234262   1.0521738     -0.0082033056 
    754000   1.0402358      0.007460856    1.0189483     -0.013550211  
    755000   0.97868828     0.0052141093   0.95907827    -0.01233051   
    756000   0.94151439     0.0052611516   0.91972847    -0.014782919  
    757000   1.0216816      0.0065200039   1.0072337     -0.0068485301 
    758000   0.95545433     0.0061501097   0.93455341    -0.013794231  
    759000   0.94986344     0.006364047    0.93300937    -0.0097889724 
    760000   0.997078       0.0058675379   0.98147478    -0.0081869304 
    761000   1.0679994      0.0074876776   1.0550969     -0.0049586777 
    762000   1.0212071      0.0057989985   1.0046384     -0.0089729374 
    763000   1.0773236      0.0058540032   1.0566491     -0.012661335  
    764000   1.033355       0.0064943125   1.0138642     -0.011804719  
    765000   1.0156797      0.006959194    0.98990269    -0.018222359  
    766000   0.92739978     0.0052030426   0.90801776    -0.012484006  
    767000   1.0098742      0.0065877924   0.97987279    -0.022489954  
    768000   1.0608916      0.0073378408   1.0367265     -0.016274236  
    769000   0.99972692     0.0060507313   0.96529497    -0.026995963  
    770000   0.99661755     0.0046992997   0.97478855    -0.014416147  
    771000   0.96328697     0.0073578601   0.93855303    -0.017568994  
    772000   1.0255039      0.0061288325   0.998393      -0.019483145  
    773000   0.97178635     0.0064040768   0.93807414    -0.026484052  
    774000   0.86291926     0.0052726013   0.83742062    -0.019080235  
    775000   1.0077051      0.0061995848   0.97277896    -0.027430796  
    776000   1.0303758      0.0062287279   1.000777      -0.021934848  
    777000   0.98843087     0.0056149869   0.9616568     -0.019422111  
    778000   0.9637541      0.0056713202   0.9396522     -0.016933479  
    779000   0.98170325     0.0059179914   0.9523437     -0.022057632  
    780000   1.0935659      0.0075093538   1.0713135     -0.014118413  
    781000   1.0574917      0.0053583327   1.0367358     -0.012890306  
    782000   1.0111281      0.0066678534   0.99233882    -0.011268495  
    783000   1.0548947      0.0063933116   1.0391966     -0.0078517713 
    784000   1.0020388      0.0060155904   0.97378509    -0.02080048   
    785000   0.96414535     0.0058368111   0.94122555    -0.015748466  
    786000   0.98212837     0.0064125382   0.95690972    -0.017913559  
    787000   1.0803809      0.0063311289   1.0627479     -0.0095970452 
    788000   1.0058645      0.0070143888   0.98080358    -0.017579251  
    789000   0.95371611     0.0057327387   0.93355139    -0.013070966  
    790000   0.93955762     0.0053320324   0.92240638    -0.010162788  
    791000   1.033127       0.0059469216   1.0119773     -0.013465205  
    792000   1.0596759      0.0074473683   1.037791      -0.014003009  
    793000   0.94991504     0.0059023808   0.92758257    -0.015266986  
    794000   0.97047821     0.0057637855   0.95165631    -0.011603462  
    795000   1.0097073      0.0073953478   0.98930004    -0.012897065  
    796000   0.93528997     0.0056305583   0.90757255    -0.02076072   
    797000   1.0020624      0.0061365505   0.98719647    -0.0074125405 
    798000   1.0053971      0.0063337382   0.98574687    -0.012172022  
    799000   1.0236705      0.0062256781   1.0100578     -0.0059986529 
    800000   1.0251945      0.0072566853   0.99858802    -0.018981068  
    801000   1.0428284      0.0065473736   1.0221418     -0.012930022  
    802000   1.0591487      0.006486162    1.0335099     -0.017760855  
    803000   1.0758066      0.0062215613   1.0528614     -0.014943287  
    804000   0.98344956     0.006067817    0.96065467    -0.015479983  
    805000   1.0011819      0.0057688636   0.9774641     -0.016270953  
    806000   0.97501685     0.0056918569   0.95265569    -0.015108968  
    807000   1.0121919      0.0068370186   0.99468644    -0.0099767216 
    808000   0.90214341     0.0054702281   0.87460839    -0.02082486   
    809000   1.0145989      0.0060306716   0.98252856    -0.024523748  
    810000   1.0045475      0.0062219841   0.97939683    -0.017678799  
    811000   0.97488732     0.0065245505   0.95476697    -0.012869117  
    812000   1.03745        0.0067083166   1.0122724     -0.017461111  
    813000   0.9971621      0.0056884708   0.9728669     -0.016878291  
    814000   1.025806       0.0066779369   1.0038557     -0.014320375  
    815000   0.99752422     0.0063833092   0.97941181    -0.010692808  
    816000   0.99641923     0.0058706717   0.96923306    -0.01977479   
    817000   0.96831844     0.0057363069   0.9384531     -0.022662964  
    818000   1.0009908      0.0056457994   0.96674129    -0.026804111  
    819000   1.0538286      0.0060994301   1.0124344     -0.033555848  
    820000   0.94780141     0.0062020322   0.91265803    -0.02809362   
    821000   0.98628885     0.0062177506   0.96070642    -0.018246396  
    822000   1.0089396      0.0060921511   0.98602224    -0.015412827  
    823000   1.0247452      0.0063588312   0.98999228    -0.027130889  
    824000   1.0430224      0.0066503652   1.0188367     -0.016427655  
    825000   1.0152295      0.0063888255   0.99234317    -0.015335056  
    826000   0.99695294     0.0065552784   0.96869484    -0.020842741  
    827000   0.98774412     0.0055844131   0.96460848    -0.015788779  
    828000   0.95373381     0.0052015868   0.9314727     -0.015167216  
    829000   0.96733353     0.0075209879   0.94839532    -0.011743169  
    830000   1.0062603      0.0065546674   0.99220471    -0.0065709753 
    831000   0.96319074     0.0065685484   0.95053933    -0.0054871872 
    832000   0.96687085     0.0047843506   0.95033294    -0.0093463107 
    833000   1.0128495      0.0062915247   1.0053159      0            
    834000   1.0284154      0.00701928     1.016279      -0.0044870485 
    835000   0.93812015     0.0053814116   0.9251755     -0.0059669024 
    836000   1.0132293      0.0064984057   0.99578357    -0.0099093083 
    837000   1.0220231      0.006134133    1.001428      -0.012993277  
    838000   1.0565169      0.0063613359   1.0416037     -0.0070548023 
    839000   0.99727581     0.0060831147   0.97548013    -0.014377918  
    840000   1.0271449      0.0059573634   1.0115376     -0.0079673942 
    841000   0.99847497     0.006400194    0.97819873    -0.012849559  
    842000   0.97646744     0.0058344731   0.95367754    -0.015526921  
    843000   0.96878813     0.0052247088   0.94786866    -0.013713604  
    844000   1.0154738      0.0063334288   0.99367408    -0.014246646  
    845000   1.0607546      0.00564887     1.0387016     -0.014163084  
    846000   1.0432313      0.006945619    1.006672      -0.028799659  
    847000   1.0058736      0.0057606831   0.9793601     -0.019031766  
    848000   1.0244115      0.006016427    1.0011375     -0.01565449   
    849000   0.9498281      0.0049118985   0.92638742    -0.01637584   
    850000   1.0632733      0.0060237383   1.0337893     -0.021575384  
    851000   1.004411       0.0058122497   0.97547186    -0.021468278  
    852000   0.95721027     0.0060112156   0.93516314    -0.014927389  
    853000   0.9749557      0.0064309605   0.95203427    -0.015669688  
    854000   1.0127622      0.006249306    0.98540616    -0.019823134  
    855000   0.95570569     0.0064686525   0.92331284    -0.025284295  
    856000   1.0524298      0.006758181    1.0225197     -0.02208218   
    857000   0.91335054     0.0058769999   0.89389088    -0.012666139  
    858000   1.0113652      0.0057090562   0.99299864    -0.010843989  
    859000   1.0064401      0.0065625372   0.97244506    -0.026509098  
    860000   1.0111707      0.0074189307   0.98239637    -0.021253217  
    861000   1.0198406      0.0069889398   0.99147608    -0.020778922  
    862000   1.0148301      0.0060387882   0.98263884    -0.024642943  
    863000   1.0095895      0.0056665452   0.99222154    -0.0098586237 
    864000   1.034229       0.0062154548   1.0170526     -0.0094837494 
    865000   1.0139796      0.0068589844   0.99879759    -0.0076399737 
    866000   1.0135474      0.0071071631   0.98980066    -0.016207985  
    867000   0.9674644      0.0053374929   0.94314713    -0.017121252  
    868000   1.0184846      0.0060707593   0.99715788    -0.013751171  
    869000   0.97851182     0.0054473001   0.96377054    -0.0074630917 
    870000   0.99135837     0.0067806      0.96337064    -0.020613987  
    871000   0.9189067      0.0064549781   0.88973738    -0.022334482  
    872000   1.0180246      0.0059741002   0.99519199    -0.015260491  
    873000   1.0152119      0.0058915277   0.98791335    -0.019747377  
    874000   0.99580604     0.0056837481   0.9737094     -0.01468982   
    875000   0.9872597      0.0055150226   0.95796326    -0.021953185  
    876000   1.0018238      0.0061946319   0.98390736    -0.010464869  
    877000   1.0436768      0.0064858241   1.0097587     -0.0261552    
    878000   0.93898431     0.0057186404   0.9133945     -0.018605632  
    879000   0.980853       0.0069320189   0.94518284    -0.02837456   
    880000   1.0002842      0.0058790497   0.96111747    -0.031726591  
    881000   0.98311773     0.0055553284   0.9484        -0.02740529   
    882000   1.0257298      0.0056605403   0.9943023     -0.023798103  
    883000   0.93826773     0.006103261    0.92310384    -0.0081850367 
    884000   0.94837514     0.0052793842   0.92739233    -0.013928784  
    885000   1.0700197      0.0060877858   1.049509      -0.012551894  
    886000   0.97624256     0.0055253661   0.95535846    -0.013622786  
    887000   1.016323       0.0063968948   0.99833255    -0.010431013  
    888000   1.0385311      0.0062568324   1.0260215     -0.0047849832 
    889000   1.0226059      0.0059203135   1.0061        -0.0088997397 
    890000   0.97889522     0.0060038183   0.94928984    -0.022324343  
    891000   1.0015325      0.0062898454   0.97213881    -0.021944292  
    892000   0.96085204     0.0063841752   0.93807366    -0.01563154   
    893000   1.054488       0.0053407881   1.041567      -0.0050776623 
    894000   1.0355431      0.0064620053   1.0229258     -0.004914884  
    895000   1.023668       0.0062788507   1.0070064     -0.0090475335 
    896000   0.9923697      0.0066291495   0.97306209    -0.011926347  
    897000   0.94691324     0.0058784209   0.93036211    -0.0095079728 
    898000   1.0355278      0.0067315895   1.0017814     -0.026044097  
    899000   1.0269454      0.0064554239   0.99388546    -0.025421523  
    900000   1.0215768      0.0060331066   0.9886788     -0.025299509  
    901000   0.99289212     0.0061685266   0.97037517    -0.015131802  
    902000   1.044251       0.0059497623   1.0055176     -0.030966269  
    903000   0.97788598     0.0047786605   0.946696      -0.023916446  
    904000   1.0284887      0.0061511161   0.99577895    -0.025059807  
    905000   1.0025024      0.0056286818   0.98610773    -0.0089380104 
    906000   1.0213643      0.0064990021   0.9830751     -0.030692281  
    907000   0.99793739     0.004762941    0.97609843    -0.01441628   
    908000   0.94302864     0.0060213895   0.91607432    -0.01994006   
    909000   1.0259285      0.0061830297   1.0023086     -0.015989015  
    910000   1.0073338      0.0060987962   0.98236897    -0.017472279  
    911000   0.98696693     0.0069776714   0.95688997    -0.022735882  
    912000   1.0717239      0.0069860694   1.0453262     -0.018426228  
    913000   0.9599821      0.0051676646   0.93317059    -0.019671148  
    914000   1.0375433      0.0060852362   1.0079564     -0.021869592  
    915000   0.99534812     0.0055275661   0.96501531    -0.022929395  
    916000   1.0369568      0.0063612812   1.015838      -0.013405904  
    917000   0.9966217      0.0060523606   0.97243672    -0.016772088  
    918000   0.95893165     0.0066674684   0.94038948    -0.011409626  
    919000   0.99079177     0.0057181162   0.96259193    -0.020830308  
    920000   0.9681094      0.0053142647   0.94449973    -0.016408858  
    921000   1.0466562      0.0068029026   1.0244285     -0.014442681  
    922000   0.97260816     0.0055059291   0.95298299    -0.012390895  
    923000   1.0268123      0.0068363672   0.99515231    -0.024022583  
    924000   0.98966878     0.0058898572   0.96453001    -0.017777596  
    925000   1.1513883      0.0070720625   1.1277513     -0.015072947  
    926000   1.0078431      0.0056575729   0.98449054    -0.015856212  
    927000   1.0287029      0.006021197    1.0023202     -0.018731176  
    928000   0.99842095     0.0065634243   0.98619132    -0.004803355  
    929000   0.9428274      0.0060164409   0.93187551    -0.0039391198 
    930000   1.0236145      0.0055865517   1.0054862     -0.01051462   
    931000   0.90006256     0.0056489846   0.87499495    -0.018372924  
    932000   1.0081992      0.0073522796   0.99296558    -0.0077345879 
    933000   1.0030618      0.0064306713   0.98797331    -0.0076276634 
    934000   1.0032079      0.0060349647   0.98535786    -0.010388129  
    935000   0.92064411     0.0057491862   0.90309653    -0.010699807  
    936000   1.0064493      0.0061863759   0.98804936    -0.010913946  
    937000   1.0031626      0.0055455645   0.97793005    -0.017771005  
    938000   1.0022933      0.005783613    0.98094544    -0.013892799  
    939000   0.90049161     0.0067539283   0.87923602    -0.014557719  
    940000   0.99351546     0.005862748    0.97631264    -0.0098130301 
    941000   0.98597407     0.0064081011   0.95904925    -0.019591131  
    942000   1.0304681      0.0067447144   1.0124574     -0.010346121  
    943000   0.90772331     0.0058743315   0.88957577    -0.011395881  
    944000   0.98761653     0.0062364302   0.97049421    -0.0097764131 
    945000   1.0405174      0.0063119981   1.0286518     -0.0041262278 
    946000   1.0103036      0.0055639869   0.99290653    -0.0098823708 
    947000   0.9797276      0.0054233344   0.96277605    -0.0096643148 
    948000   1.0598146      0.005534453    1.0411174     -0.010814299  
    949000   0.96624988     0.0051133191   0.94671772    -0.012345175  
    950000   1.0544615      0.0072350542   1.0367606     -0.0098577672 
    951000   0.96914245     0.0058900477   0.95400698    -0.0079269685 
    952000   1.0056565      0.0063264716   0.99002186    -0.0081545942 
    953000   1.0119929      0.0065335499   0.99011859    -0.014347052  
    954000   1.0930672      0.0057772222   1.0679998     -0.016937138  
    955000   1.0493523      0.006181161    1.0287108     -0.012836395  
    956000   1.0208094      0.0056281219   0.99797549    -0.015241101  
    957000   1.0067985      0.0068925756   0.98428224    -0.015027656  
    958000   0.96538441     0.0057716167   0.94815778    -0.010046089  
    959000   1.0563926      0.007202289    1.0347915     -0.013743606  
    960000   0.99859483     0.0062720591   0.98407427    -0.0070929988 
    961000   0.98611487     0.0062391306   0.96510709    -0.013673041  
    962000   0.98531323     0.0055309617   0.9667149     -0.011269549  
    963000   0.96960318     0.0049897376   0.94262637    -0.019764884  
    964000   0.96565878     0.0057196426   0.93352149    -0.024954699  
    965000   1.0895351      0.0061225683   1.0663964     -0.015034714  
    966000   1.0421315      0.0067654522   1.0143702     -0.020009842  
    967000   1.0160501      0.006797407    0.99223595    -0.016256793  
    968000   0.97028071     0.0059579677   0.94631552    -0.016748235  
    969000   0.99367512     0.0051740615   0.9753756     -0.010908546  
    970000   1.0814702      0.0066643432   1.0661518     -0.0072743851 
    971000   1.0146379      0.0057416676   1.0016253     -0.0054656883 
    972000   1.0443594      0.0053272458   1.023744      -0.012847392  
    973000   1.0555602      0.0070488597   1.0411374     -0.006571576  
    974000   0.98821685     0.0059038927   0.97704487    -0.0038216056 
    975000   0.99821863     0.0060812436   0.98323183    -0.0075620359 
    976000   0.97396253     0.006631852    0.96188167    -0.0048365023 
    977000   0.98047858     0.0060379573   0.96369315    -0.0094926136 
    978000   0.96105499     0.0057962697   0.944714      -0.0091926534 
    979000   0.98069041     0.0057210397   0.96744109    -0.0059549281 
    980000   0.97993454     0.0063578371   0.956665      -0.015980774  
    981000   1.043761       0.0076255755   1.0275043     -0.0084932156 
    982000   0.96235627     0.006321764    0.93844377    -0.016754477  
    983000   1.0051988      0.0061285092   0.97614277    -0.021579351  
    984000   0.93443027     0.0058388313   0.91056602    -0.016913948  
    985000   1.0153603      0.005025711    0.99411145    -0.013696574  
    986000   1.0715314      0.0072058594   1.0586258     -0.0049355474 
    987000   0.99044662     0.0061999251   0.97663219    -0.0064474716 
    988000   1.0053463      0.0052728997   0.98404277    -0.013825787  
    989000   1.0869474      0.0058389367   1.0618457     -0.017016993  
    990000   0.99865792     0.006111762    0.96607936    -0.025150529  
    991000   0.9690196      0.005471635    0.94748037    -0.014331645  
    992000   0.96473032     0.005153517    0.94464311    -0.012911531  
    993000   0.93914554     0.0059579616   0.92315054    -0.0090096131 
    994000   0.94197736     0.006168061    0.928533      -0.0064379199 
    995000   0.97102462     0.0067608083   0.95537264    -0.0084294851 
    996000   1.004307       0.0074927344   0.98068578    -0.016151136  
    997000   1.0045538      0.0060566628   0.98702705    -0.010054866  
    998000   1.0271569      0.0063831135   1.0064769     -0.013040039  
    999000   0.9793748      0.0060792376   0.95779402    -0.014296167  
   1000000   1.0000409      0.0064805239   0.98165826    -0.01094428   
Loop time of 29.2023 on 1 procs for 1000000 steps with 605 atoms

Performance: 29586734.192 tau/day, 34243.905 timesteps/s
98.3% CPU use with 1 MPI tasks x no OpenMP threads

MPI task timing breakdown:
Section |  min time  |  avg time  |  max time  |%varavg| %total
---------------------------------------------------------------
Pair    | 1.362      | 1.362      | 1.362      |   0.0 |  4.66
Bond    | 0.046405   | 0.046405   | 0.046405   |   0.0 |  0.16
Neigh   | 7.2631     | 7.2631     | 7.2631     |   0.0 | 24.87
Comm    | 1.4066     | 1.4066     | 1.4066     |   0.0 |  4.82
Output  | 0.55358    | 0.55358    | 0.55358    |   0.0 |  1.90
Modify  | 16.478     | 16.478     | 16.478     |   0.0 | 56.43
Other   |            | 2.092      |            |       |  7.16

Nlocal:            605 ave         605 max         605 min
Histogram: 1 0 0 0 0 0 0 0 0 0
Nghost:            101 ave         101 max         101 min
Histogram: 1 0 0 0 0 0 0 0 0 0
Neighs:             10 ave          10 max          10 min
Histogram: 1 0 0 0 0 0 0 0 0 0

Total # of neighbors = 10
Ave neighs/atom = 0.016528926
Ave special neighs/atom = 0
Neighbor list builds = 218421
Dangerous builds = 0
Total wall time: 0:00:29
