fix fLANG all langevin 1.0 1.0 1.0 100
neigh_modify exclude molecule/intra all
fix rigidNVE linked_vesicle rigid/nve molecule
  1 rigid bodies with 5 atoms
fix NVE synapsin nve 1.0 1.0 1.0

    ##======================================##
    ## Output
    ##======================================##

thermo 1000
thermo_style custom step temp press etotal epair
thermo_modify flush yes
timestep 0.01

    ##======================================##
    ## Equilibration before output
    ##======================================##


    ##======================================##
    ## Run with output
    ##======================================##

fix enforce_2d all enforce2d
dump 2 all custom 1000 Results_eps_attr4_eps_rep1_eps_rep_weak0_range2_attr_with_repFalse_n_synapsin600_n_vesicles1/Movie_2d_eps_attr4_eps_rep1_eps_rep_weak0_range2_attr_with_repFalse_n_synapsin600_n_vesicles1.xyz id type mol x y z
run 1000000
Generated 0 of 3 mixed pair_coeff terms from geometric mixing rule
Neighbor list info ...
  update every 1 steps, delay 1 steps, check yes
  max neighbors/atom: 2000, page size: 100000
  master list distance cutoff = 11.52462
  ghost atom cutoff = 11.52462
  binsize = 5.7623102, bins = 55 55 1
  1 neighbor lists, perpetual/occasional/extra = 1 0 0
  (1) pair cosine/squared, perpetual
      attributes: half, newton on
      pair build: half/bin/newton
      stencil: half/bin/2d
      bin: standard
Per MPI rank memory allocation (min/avg/max) = 8.538 | 8.538 | 8.538 Mbytes
   Step          Temp          Press          TotEng         E_pair    
         0   0.99605013    -0.012465183    0.98864149     0            
      1000   0.97928549     0.006553782    0.96615324    -0.0058483173 
      2000   1.0305057      0.0063327606   1.0112682     -0.011572602  
      3000   1.0648449      0.0061837794   1.0459689     -0.010955679  
      4000   0.97461773     0.0055099712   0.95486053    -0.012507974  
      5000   0.99328627     0.0062908472   0.97267505    -0.013223139  
      6000   1.0113172      0.0054321314   0.99384855    -0.0099464069 
      7000   0.94991598     0.0064242284   0.92806529    -0.014785197  
      8000   1.0068935      0.0054122545   0.9905998     -0.0088043602 
      9000   0.95586157     0.0059035673   0.94260537    -0.0061464817 
     10000   0.95538236     0.0051721586   0.93174696    -0.016529249  
     11000   1.0306154      0.0054259605   1.0043445     -0.018605184  
     12000   0.99463386     0.0055195515   0.96276816    -0.024467598  
     13000   1.0031936      0.0054044373   0.97288849    -0.02284339   
     14000   0.95170959     0.0055462649   0.92978928    -0.014841478  
     15000   0.98187645     0.0058148005   0.95459024    -0.019982997  
     16000   0.94428184     0.0062763268   0.91962005    -0.01763821   
     17000   1.0897356      0.0063801402   1.0471092     -0.034520941  
     18000   0.91222597     0.0054231739   0.86838063    -0.037060185  
     19000   0.95901627     0.0048565485   0.91181944    -0.040063647  
     20000   1.0428773      0.006530692    0.9871077     -0.048012618  
     21000   0.94205675     0.0048318457   0.89487233    -0.040177384  
     22000   0.96431647     0.0053908099   0.91702333    -0.040120535  
     23000   0.98655795     0.0060433036   0.94520135    -0.034018567  
     24000   0.94154881     0.0056127008   0.88959648    -0.044949078  
     25000   1.0360679      0.0059401053   0.98308523    -0.045276363  
     26000   0.94019621     0.0060710558   0.89642806    -0.036774954  
     27000   1.0423116      0.0058771101   1.000912      -0.033646839  
     28000   1.0176212      0.0064507992   0.98410689    -0.025945279  
     29000   1.0212541      0.0066341642   0.97690141    -0.036756592  
     30000   1.0093644      0.0061317363   0.96676618    -0.035090569  
     31000   1.0028098      0.0068527245   0.9713105     -0.024040332  
     32000   1.0695927      0.0071015322   1.0301041     -0.031532997  
     33000   0.98398263     0.005697497    0.95319532    -0.023468433  
     34000   1.0042133      0.0067414836   0.96272468    -0.034019244  
     35000   1.0762958      0.0065373571   1.0304702     -0.037820161  
     36000   0.94142652     0.0043292072   0.90585294    -0.028571236  
     37000   1.0190821      0.0063895382   0.98358943    -0.027912747  
     38000   1.0087901      0.0064985343   0.96638616    -0.03490052   
     39000   1.0045564      0.0063848902   0.96862079    -0.02846366   
     40000   1.0360674      0.0061464332   0.98406577    -0.044295339  
     41000   1.0377645      0.0065611248   0.9913982     -0.038647362  
     42000   0.9101572      0.0052106791   0.86706708    -0.036320359  
     43000   0.96870793     0.0063085816   0.92376383    -0.037738844  
     44000   1.0463204      0.0056427232   0.99858278    -0.039955097  
     45000   1.0742781      0.0060153201   1.034846      -0.031441592  
     46000   0.9392119      0.0053638145   0.90335306    -0.028872963  
     47000   0.97823912     0.0061733992   0.93856114    -0.032401817  
     48000   0.98512183     0.0063002081   0.95750578    -0.020288699  
     49000   1.0226676      0.0068398802   0.99287888    -0.02218208   
     50000   0.93038627     0.005757301    0.90524943    -0.018216609  
     51000   1.0538013      0.0062501198   1.0203659     -0.025597161  
     52000   0.93706332     0.0054991499   0.90644952    -0.023643908  
     53000   1.025703       0.006441591    0.97953031    -0.038543524  
     54000   1.0186915      0.0059615416   0.97093303    -0.040181401  
     55000   0.99456511     0.0053040647   0.94933445    -0.037833072  
     56000   0.9361549      0.0055029638   0.89407596    -0.035115801  
     57000   1.038605       0.0060762789   0.99210755    -0.038772329  
     58000   0.93125663     0.0061152907   0.87874143    -0.045588494  
     59000   1.019043       0.0061447837   0.95704936    -0.054413997  
     60000   0.97145421     0.0054420871   0.92391046    -0.040318055  
     61000   0.98352451     0.0058669093   0.9373645     -0.038844534  
     62000   0.99040412     0.0069387719   0.93722954    -0.045807936  
     63000   0.96850103     0.0057619089   0.92311805    -0.038179256  
     64000   1.0318538      0.0065134458   0.97160701    -0.052571828  
     65000   1.0173414      0.0061943581   0.97300183    -0.036772605  
     66000   0.96251143     0.0051787368   0.93012693    -0.025225318  
     67000   1.0256347      0.0061401109   0.99421747    -0.02378858   
     68000   0.94511659     0.0062943109   0.89918375    -0.038903056  
     69000   0.96827456     0.0055174096   0.92126323    -0.039809294  
     70000   0.98942642     0.0067433763   0.95151942    -0.030547631  
     71000   0.97564272     0.0044110357   0.92616573    -0.042220136  
     72000   1.0379695      0.0063482702   0.99136819    -0.038880839  
     73000   1.0374533      0.0058147735   0.99367687    -0.03605987   
     74000   0.99232386     0.0061066894   0.95816575    -0.026777185  
     75000   0.94566806     0.0057632059   0.90261885    -0.036015318  
     76000   1.0195715      0.0068387775   0.97392841    -0.038059462  
     77000   0.9377065      0.0052717099   0.89739659    -0.033335229  
     78000   0.99531275     0.0065428586   0.96912932    -0.018780273  
     79000   0.97539084     0.0064597355   0.94039093    -0.02774494   
     80000   1.0391717      0.0058091851   1.0033644     -0.028077947  
     81000   0.96020378     0.0052019816   0.91508871    -0.037973053  
     82000   0.9728391      0.0062797902   0.93524317    -0.030359944  
     83000   0.97201345     0.0055539909   0.92668721    -0.038096385  
     84000   1.0422094      0.0070171185   1.009271      -0.025186495  
     85000   0.95633986     0.0055003349   0.91076428    -0.038462306  
     86000   0.92279441     0.0048666113   0.87597888    -0.039951778  
     87000   0.9470865      0.0051274434   0.90642225    -0.033619809  
     88000   0.98947245     0.0058545656   0.95984878    -0.022263961  
     89000   1.0185525      0.0062617349   0.97913224    -0.031844244  
     90000   0.98350204     0.0063073487   0.93827197    -0.037914761  
     91000   1.0387605      0.0064266536   0.99486531    -0.036168847  
     92000   1.0264101      0.0077926256   0.98952791    -0.029247755  
     93000   0.98699229     0.0061563237   0.93846284    -0.04118819   
     94000   1.001306       0.0066469949   0.95525088    -0.038607408  
     95000   1.0179424      0.005559563    0.97030564    -0.040065241  
     96000   0.96128897     0.0064287446   0.90306868    -0.051070206  
     97000   1.0195806      0.0063545041   0.96957109    -0.042425832  
     98000   1.0185683      0.0062868824   0.96524763    -0.045744536  
     99000   1.0058441      0.0058991052   0.95001254    -0.048350068  
    100000   1.0180764      0.0058141377   0.9658942     -0.044609729  
    101000   1.0300835      0.0059985889   0.97755392    -0.044867826  
    102000   1.0509805      0.0062415956   0.99465224    -0.048511064  
    103000   0.96805238     0.0049111049   0.92656754    -0.034284456  
    104000   0.97353163     0.006771625    0.93374526    -0.032545225  
    105000   1.0080924      0.0059816594   0.96486604    -0.035728123  
    106000   1.0210885      0.0069935784   0.9785439     -0.034949711  
    107000   0.92236814     0.0056763265   0.87296986    -0.042537692  
    108000   0.95321092     0.0050058099   0.90121381    -0.04490711   
    109000   0.96929062     0.0058271969   0.92770082    -0.034380201  
    110000   1.0293814      0.0056291078   0.9936384     -0.028086457  
    111000   0.98764882     0.0061790739   0.94381852    -0.03648415   
    112000   0.97391175     0.0057745282   0.92589187    -0.040775908  
    113000   1.0149135      0.0065799545   0.9718647     -0.035499871  
    114000   0.98940963     0.0061146824   0.94463063    -0.037419762  
    115000   1.0498593      0.0065684628   0.99412393    -0.047926496  
    116000   1.0189098      0.0066250356   0.97181686    -0.039514286  
    117000   1.007687       0.0058240712   0.96303391    -0.037157926  
    118000   0.99868614     0.0061797876   0.93912229    -0.052135602  
    119000   1.0038303      0.0056747916   0.96135513    -0.035008697  
    120000   1.0093509      0.0058671296   0.97510334    -0.026740018  
    121000   1.0109582      0.0054948881   0.96324458    -0.04019411   
    122000   1.0771634      0.0072436544   1.0348894     -0.034262027  
    123000   1.0359762      0.0070785268   0.99180609    -0.036464517  
    124000   0.98427989     0.0067214665   0.94319117    -0.033767632  
    125000   0.95930827     0.0042317055   0.92559492    -0.026578001  
    126000   1.0479549      0.0073465675   1.0159461     -0.024214103  
    127000   1.0168542      0.0051445223   0.97407422    -0.035216599  
    128000   0.97911881     0.0059370022   0.94127844    -0.030557669  
    129000   0.96823362     0.0061324727   0.93157895    -0.02945293   
    130000   1.0064712      0.0064012635   0.96601588    -0.032969176  
    131000   1.0603471      0.0066098537   1.0072624     -0.045197896  
    132000   0.97431061     0.0070318853   0.92466621    -0.042397454  
    133000   0.99425539     0.0063717957   0.94474803    -0.042112074  
    134000   1.0140385      0.0053282192   0.96665564    -0.039840438  
    135000   1.0965334      0.0061161815   1.0527779     -0.035599464  
    136000   0.98282602     0.0059050269   0.93547294    -0.040042798  
    137000   1.0255926      0.0062853703   0.98497726    -0.032986941  
    138000   0.97761182     0.0062326662   0.93652995    -0.033810376  
    139000   0.98038219     0.0053344269   0.94702138    -0.026068703  
    140000   1.0194567      0.0072987781   0.99113827    -0.020735691  
    141000   0.97834677     0.0059176156   0.95556925    -0.015500552  
    142000   1.0103072      0.0063329495   0.98366771    -0.019124788  
    143000   1.0509033      0.0067316096   1.0229261     -0.02016057   
    144000   0.989952       0.0060085789   0.94752702    -0.035061697  
    145000   0.993243       0.0061300025   0.9464614     -0.039393847  
    146000   0.93886671     0.0066245628   0.89269217    -0.039191237  
    147000   0.97256238     0.0059798741   0.91548983    -0.049838621  
    148000   0.95067818     0.0064673644   0.89538767    -0.048219342  
    149000   1.0013761      0.0064090878   0.94596014    -0.047967747  
    150000   0.95197695     0.0060742654   0.88992921    -0.054966921  
    151000   1.024837       0.0066742538   0.9839431     -0.033271166  
    152000   1.0650225      0.0058487065   1.0230041     -0.034096744  
    153000   0.97396201     0.0058912981   0.92825514    -0.038462521  
    154000   1.0162086      0.0053458798   0.95241845    -0.056231622  
    155000   0.93543781     0.0065172717   0.87601537    -0.052464635  
    156000   1.0317752      0.0070163856   0.98073512    -0.04336575   
    157000   1.0145445      0.0051880243   0.9523652     -0.054633128  
    158000   1.0454197      0.0061976839   0.97599885    -0.061644972  
    159000   0.92175131     0.0052738636   0.86130606    -0.053589255  
    160000   1.0254059      0.0068532632   0.9718405     -0.045938443  
    161000   1.019107       0.0062681659   0.95120495    -0.060321918  
    162000   0.95699957     0.0061716991   0.89938819    -0.050493198  
    163000   0.94319878     0.005542074    0.88921619    -0.046967065  
    164000   1.0203666      0.0067120014   0.97779628    -0.034980861  
    165000   0.95720061     0.0062471351   0.91019413    -0.039886806  
    166000   0.9901635      0.0056135507   0.93859787    -0.044200781  
    167000   0.97993772     0.0063029543   0.94121994    -0.031428989  
    168000   1.0903898      0.0070454941   1.0452016     -0.037077899  
    169000   0.95963832     0.0062091977   0.90393957    -0.048560941  
    170000   0.97549364     0.0054765148   0.91652541    -0.051712485  
    171000   0.97976435     0.0056355935   0.92969016    -0.042786681  
    172000   1.0428799      0.0056318115   0.98362189    -0.051501038  
    173000   1.0053355      0.006669835    0.9622053     -0.035652539  
    174000   1.0248032      0.0067074205   0.97457879    -0.0426019    
    175000   0.92805891     0.0052123322   0.88184282    -0.039313178  
    176000   0.99826645     0.0055947506   0.95245236    -0.038388963  
    177000   1.0299845      0.0063304029   0.97673548    -0.045587993  
    178000   0.95856831     0.0065804823   0.89450971    -0.05692875   
    179000   1.0141869      0.0060505053   0.95314676    -0.053496621  
    180000   0.98844727     0.0061872374   0.92602681    -0.055068368  
    181000   1.0418166      0.0060025418   0.97227578    -0.061791726  
    182000   1.0859713      0.0067616223   1.0311742     -0.046719611  
    183000   1.0040878      0.0057184319   0.95784006    -0.038779299  
    184000   1.0228099      0.0057007354   0.98391658    -0.031285606  
    185000   1.0585832      0.0060982776   1.0161697     -0.0345397    
    186000   0.9832674      0.0058362386   0.93853968    -0.037414153  
    187000   0.99664182     0.0065114404   0.95346191    -0.03576687   
    188000   1.061895       0.0069465189   1.0278533     -0.026143363  
    189000   1.0158469      0.0058398968   0.9800901     -0.028200909  
    190000   1.0095414      0.0053796681   0.9749624     -0.027070033  
    191000   1.0017935      0.0062315167   0.95661241    -0.037729733  
    192000   1.0402871      0.0067139263   1.0038704     -0.028679072  
    193000   1.0173252      0.0050667648   0.98330043    -0.026457876  
    194000   1.0075241      0.0059333209   0.97602167    -0.024008427  
    195000   0.9926508      0.005445892    0.947115      -0.038152445  
    196000   1.0214991      0.0052341688   0.98815653    -0.025744601  
    197000   1.0496392      0.0060183801   1.0168056     -0.02502638   
    198000   1.0762583      0.0065281865   1.0491104     -0.019142664  
    199000   1.0361714      0.0054646105   1.0094023     -0.019062061  
    200000   0.95876789     0.0064207074   0.92233243    -0.029304128  
    201000   1.0121604      0.0056408741   0.98023406    -0.024397886  
    202000   1.0058182      0.0065460706   0.96308481    -0.035252077  
    203000   1.0170043      0.0064953986   0.98359604    -0.025843744  
    204000   1.0263889      0.0061820768   0.99199497    -0.026759604  
    205000   1.0506439      0.0069829403   1.0180703     -0.024758919  
    206000   0.90873481     0.0063372835   0.87909927    -0.022876356  
    207000   1.004237       0.0060154916   0.97650284    -0.020264666  
    208000   1.0019351      0.0060327804   0.97218442    -0.022298263  
    209000   1.0592326      0.0065985273   1.0219774     -0.029376643  
    210000   1.0085434      0.0062379797   0.97596768    -0.025074157  
    211000   0.99330595     0.0062482178   0.95404023    -0.031877486  
    212000   1.0069589      0.0056745283   0.97785412    -0.021615019  
    213000   1.0129884      0.0070728073   0.98700168    -0.01845205   
    214000   1.0229109      0.0055032185   0.99765609    -0.017646421  
    215000   1.0080325      0.0053424767   0.98702176    -0.013512966  
    216000   1.0255779      0.0056997958   0.99589802    -0.0220516    
    217000   0.96862452     0.0063402666   0.94140513    -0.020014739  
    218000   1.0429153      0.0060654884   1.0121632     -0.02299488   
    219000   1.0855902      0.0072585698   1.0477992     -0.029716347  
    220000   0.91325505     0.0054510387   0.89569065    -0.010771588  
    221000   1.0064991      0.0061670919   0.98571931    -0.013293478  
    222000   1.0009942      0.0060830441   0.98693175    -0.0066170868 
    223000   0.98769094     0.0053243561   0.95947468    -0.020869802  
    224000   0.98765217     0.0052572291   0.95574501    -0.024560991  
    225000   1.018421       0.0065216851   0.98736879    -0.023477162  
    226000   1.0282529      0.0069407333   1.0069468     -0.013657939  
    227000   0.93290169     0.0057476733   0.90301874    -0.022944015  
    228000   1.0163406      0.0056560008   0.9882186     -0.020562416  
    229000   0.97022978     0.0063763405   0.9377984     -0.025214796  
    230000   1.0438618      0.005661013    1.0223972     -0.013700271  
    231000   0.99222998     0.0059886355   0.9683638     -0.016485964  
    232000   0.99264724     0.0059238127   0.98260789    -0.002656027  
    233000   1.0489297      0.0062437898   1.0309319     -0.010195825  
    234000   1.030412       0.0061716604   1.0225103     -0.00023749081
    235000   1.0328225      0.0055950979   1.0051248     -0.020015525  
    236000   1.0464593      0.0066042348   1.018829      -0.019846746  
    237000   0.98111501     0.0064968912   0.94592917    -0.027888291  
    238000   0.99014693     0.0062384138   0.96231815    -0.020464058  
    239000   1.0062452      0.0057755688   0.97086903    -0.027891711  
    240000   0.97565575     0.0047621494   0.94815787    -0.020240943  
    241000   1.0079196      0.0063116105   0.97285278    -0.027569936  
    242000   0.94136103     0.0054206373   0.9163756     -0.017983568  
    243000   1.0254474      0.0057945241   1.0029142     -0.014905869  
    244000   0.97513159     0.0055711354   0.94827798    -0.019600566  
    245000   0.95218132     0.0059857768   0.9332092     -0.011889779  
    246000   1.0272216      0.0067275737   1.0110967     -0.0084843953 
    247000   0.98188729     0.0057063958   0.96751983    -0.0070641589 
    248000   0.9691637      0.0052342763   0.93709747    -0.024857582  
    249000   0.95890796     0.0073167224   0.92446103    -0.027314557  
    250000   1.0455304      0.005976553    1.0128677     -0.024886004  
    251000   0.98955719     0.00659874     0.95118728    -0.031009563  
    252000   0.94179778     0.0052906412   0.90895908    -0.025833596  
    253000   1.0163703      0.0058471301   0.98593393    -0.022876588  
    254000   1.0004335      0.0058702728   0.95171822    -0.041274011  
    255000   1.0548446      0.0074502989   1.0184843     -0.028514312  
    256000   1.0098671      0.0054139543   0.96565047    -0.036705266  
    257000   0.97043832     0.0071931171   0.92852093    -0.034699259  
    258000   1.0122706      0.0060996408   0.96862924    -0.036112026  
    259000   1.0322783      0.0060772386   0.99233803    -0.032262189  
    260000   0.94186058     0.0052160295   0.91096829    -0.023886718  
    261000   1.03924        0.0058852466   1.0123169     -0.019193176  
    262000   0.95192261     0.0055993481   0.92348265    -0.021359545  
    263000   1.0357921      0.0057772232   1.0086768     -0.019411073  
    264000   0.94154016     0.0054308307   0.90576214    -0.028774833  
    265000   0.98158211     0.0060172251   0.95067105    -0.023610045  
    266000   0.99910156     0.0062057921   0.95753852    -0.034131708  
    267000   1.010307       0.0070748268   0.97445619    -0.028336137  
    268000   1.0492741      0.005963854    1.0144503     -0.0270193    
    269000   1.0392748      0.0060562111   1.0106148     -0.020929797  
    270000   1.0458831      0.0066197598   1.019706      -0.018397856  
    271000   1.0408792      0.0058247285   1.0060503     -0.027086811  
    272000   1.0062529      0.0060754238   0.97882466    -0.019943732  
    273000   1.0158229      0.0063856218   0.97974707    -0.028520147  
    274000   1.0017504      0.0056604795   0.96151042    -0.032788925  
    275000   0.92661519     0.0055520236   0.88672541    -0.0329976    
    276000   1.023654       0.0066849836   0.98259195    -0.033448076  
    277000   1.0454773      0.007747109    0.99953772    -0.038163305  
    278000   0.95201943     0.0063119477   0.91013306    -0.034805235  
    279000   0.97473503     0.0067019218   0.94031867    -0.027166269  
    280000   1.115951       0.007893941    1.0792779     -0.028372621  
    281000   1.0396584      0.0065736962   1.0032634     -0.028662072  
    282000   1.0483765      0.0058589863   1.0058894     -0.034689304  
    283000   0.99383823     0.0053146709   0.94767832    -0.038767725  
    284000   0.93733502     0.0057250191   0.88241741    -0.047945692  
    285000   0.99034038     0.0057873832   0.93819169    -0.044782518  
    286000   0.91996407     0.0049935068   0.87093663    -0.042184733  
    287000   0.99387193     0.0058387018   0.94654891    -0.039930591  
    288000   0.94190522     0.0062724595   0.87935673    -0.055542581  
    289000   1.0138103      0.0060318623   0.95266973    -0.053599829  
    290000   1.0308649      0.005983067    0.97481865    -0.048378661  
    291000   0.99695881     0.0067729019   0.94919689    -0.040346525  
    292000   1.0746208      0.00596891     1.004625      -0.062002737  
    293000   0.97926835     0.0056025644   0.92551262    -0.046471916  
    294000   1.0062044      0.0070776832   0.93914828    -0.059571973  
    295000   0.99600008     0.0066736483   0.93056316    -0.058028658  
    296000   0.96101027     0.0063863589   0.91128452    -0.04257774   
    297000   0.96668396     0.0062599401   0.89820602    -0.061287728  
    298000   1.0556887      0.005846289    0.99394943    -0.053887006  
    299000   1.0717722      0.0070543494   1.0024996     -0.061300685  
    300000   0.95220531     0.0058762872   0.89864701    -0.046475782  
    301000   1.0326315      0.0054008893   0.98714252    -0.037808281  
    302000   1.0263917      0.0057896985   0.97290969    -0.045847722  
    303000   0.92538267     0.0060834442   0.88343229    -0.035067364  
    304000   0.96693164     0.0054094517   0.90144909    -0.058290491  
    305000   0.96589646     0.0059271115   0.89900151    -0.059710589  
    306000   0.93225868     0.006344484    0.86342029    -0.061904234  
    307000   0.95038337     0.0053589912   0.8920687     -0.051245696  
    308000   0.98764317     0.0064236271   0.93511677    -0.045180294  
    309000   0.96853564     0.0055463634   0.91492309    -0.046408568  
    310000   0.98404953     0.0057393989   0.94297969    -0.033750461  
    311000   0.97241377     0.0061475603   0.92236855    -0.042812386  
    312000   0.98210623     0.0066388323   0.93731155    -0.037489759  
    313000   0.96829975     0.0067071646   0.92025642    -0.040841104  
    314000   1.1307421      0.007250554    1.070911      -0.051420618  
    315000   1.063535       0.005666072    1.0200892     -0.035535196  
    316000   1.051116       0.0062480688   1.0120641     -0.0312337    
    317000   0.99750583     0.0067409889   0.96448707    -0.025599299  
    318000   0.98803383     0.0071027714   0.94858404    -0.032100779  
    319000   0.96161814     0.0052884205   0.91516441    -0.039301194  
    320000   0.98208044     0.0056462821   0.93340315    -0.041372565  
    321000   1.0724487      0.0069995603   1.0245418     -0.039930033  
    322000   0.98172212     0.0058336675   0.94026119    -0.034158868  
    323000   0.99453342     0.0058182655   0.94470528    -0.042430782  
    324000   0.99758532     0.0052629534   0.95911519    -0.03105008   
    325000   0.96032775     0.0052219425   0.91705595    -0.036128867  
    326000   1.0562613      0.0072324579   1.0081669     -0.040237977  
    327000   0.95763886     0.0058801718   0.91701635    -0.033499572  
    328000   1.0011138      0.0063616947   0.9555848     -0.038082686  
    329000   1.0358737      0.0069912819   1.0014299     -0.026738916  
    330000   1.0168269      0.0067948863   0.9755686     -0.033695148  
    331000   1.0078992      0.0065867283   0.96764765    -0.032754735  
    332000   0.99317256     0.0061499851   0.94374416    -0.04204117   
    333000   1.0698657      0.006865935    1.0274749     -0.034433118  
    334000   1.0487446      0.0071688265   0.98476607    -0.056177905  
    335000   0.98588564     0.0065045435   0.93849225    -0.040060354  
    336000   0.9433875      0.0068952103   0.88947991    -0.046890661  
    337000   0.93818666     0.005454436    0.89112912    -0.040079291  
    338000   1.0020705      0.00743035     0.95659809    -0.038018971  
    339000   1.0026647      0.0062923026   0.94838534    -0.046821497  
    340000   1.0342306      0.0060782012   0.97476112    -0.051776856  
    341000   1.0532733      0.0065791476   0.99693217    -0.04850691   
    342000   0.97178507     0.0057484654   0.9140833     -0.050473617  
    343000   0.97553153     0.0057840795   0.91354222    -0.054733289  
    344000   0.99995976     0.0053682185   0.93014832    -0.062373722  
    345000   1.0084533      0.0063757769   0.94662513    -0.05432726   
    346000   1.1020481      0.0072358072   1.0392948     -0.054556209  
    347000   0.94764511     0.0056919487   0.89488212    -0.045714396  
    348000   1.0050563      0.0061369882   0.95300137    -0.044579255  
    349000   0.99387468     0.0061489321   0.92993514    -0.056547084  
    350000   1.0230611      0.0056462466   0.97033176    -0.045119751  
    351000   0.99738736     0.0068643986   0.94541506    -0.044553716  
    352000   0.96905869     0.0054172874   0.9331383     -0.028712516  
    353000   0.97344542     0.004996583    0.92138838    -0.044816536  
    354000   1.0700449      0.0063250803   1.0137196     -0.048366263  
    355000   1.0175962      0.0069803369   0.95633074    -0.053696605  
    356000   1.0341682      0.0056521018   0.97191718    -0.054558831  
    357000   0.96634072     0.0064162997   0.91972052    -0.039432546  
    358000   0.99180088     0.0067234473   0.93689718    -0.047526668  
    359000   0.9839797      0.0070204933   0.95206622    -0.024594625  
    360000   0.98374986     0.0056869065   0.93428122    -0.042151489  
    361000   0.97818372     0.0067953786   0.92921125    -0.041696718  
    362000   0.9721122      0.005486233    0.91662869    -0.048252923  
    363000   0.9898451      0.0053425461   0.9443242     -0.038158424  
    364000   0.94379464     0.0053027865   0.90609429    -0.030680388  
    365000   1.0653698      0.0069126912   1.0158474     -0.041598227  
    366000   1.0202033      0.0064306252   0.96169172    -0.050923265  
    367000   1.0199429      0.0064254875   0.95954103    -0.052815487  
    368000   0.95590978     0.0050898203   0.90355822    -0.045241496  
    369000   1.0369392      0.0063375715   0.99250081    -0.036725581  
    370000   1.0474462      0.0065043471   1.0076289     -0.032026455  
    371000   1.028957       0.0062045586   0.98442587    -0.03687773   
    372000   0.96690259     0.0053592454   0.92481001    -0.034900743  
    373000   0.98507209     0.0061394157   0.94180874    -0.035936367  
    374000   0.90545549     0.0048942901   0.86729799    -0.031422706  
    375000   1.0073175      0.0061407197   0.96803231    -0.031792724  
    376000   0.99368796     0.0054930461   0.94954943    -0.036747467  
    377000   0.99316445     0.0057880283   0.95904322    -0.026734051  
    378000   1.0416317      0.0072484918   1.0031105     -0.030773583  
    379000   0.98716847     0.0055982739   0.94545723    -0.034368663  
    380000   1.0604945      0.0066234275   1.0265173     -0.026089219  
    381000   0.98312719     0.0061237917   0.94169316    -0.034121513  
    382000   1.0363642      0.0065662255   0.99302682    -0.035628915  
    383000   0.97838072     0.0053308829   0.9344727     -0.036630801  
    384000   0.99864568     0.0067863304   0.95361984    -0.037597893  
    385000   1.0608072      0.0067155964   1.0183522     -0.034564723  
    386000   1.0087161      0.0061987457   0.9588644     -0.042348815  
    387000   0.97008776     0.0057545346   0.92137283    -0.041499402  
    388000   1.0193646      0.0060744247   0.98163997    -0.030142619  
    389000   1.0884062      0.007038453    1.039289      -0.041021618  
    390000   0.941579       0.0064367583   0.90178149    -0.032794034  
    391000   0.99671465     0.0064417508   0.95410241    -0.03519866   
    392000   0.98313233     0.0069499909   0.93328261    -0.042537171  
    393000   1.065075       0.006770097    1.0050406     -0.052112437  
    394000   0.94215581     0.0056212292   0.88741492    -0.047733122  
    395000   0.9982508      0.0062866671   0.96117355    -0.029652243  
    396000   1.0580925      0.0062067662   1.0029398     -0.047282619  
    397000   0.96831542     0.0054738991   0.91796663    -0.04314644   
    398000   1.0099011      0.0053869388   0.96190259    -0.040486853  
    399000   1.0161041      0.0071831881   0.96244079    -0.046105485  
    400000   1.0130136      0.0055317661   0.95761786    -0.047860932  
    401000   1.0847964      0.0067827609   1.0332237     -0.043503947  
    402000   1.0169954      0.0067954868   0.97142025    -0.038010686  
    403000   0.99867869     0.0065097908   0.94480346    -0.046447047  
    404000   0.92515348     0.0044578621   0.88147695    -0.036795223  
    405000   0.97954193     0.0054625404   0.92908686    -0.04316922   
    406000   0.93041972     0.0054015021   0.87425308    -0.049246162  
    407000   0.98655997     0.0062779587   0.93509987    -0.044122053  
    408000   0.95695137     0.0056328401   0.91606605    -0.033767505  
    409000   1.0874279      0.0069042848   1.0326031     -0.046736483  
    410000   0.99815608     0.0062006552   0.9426956     -0.048036186  
    411000   1.0240804      0.0071548632   0.97830014    -0.038163134  
    412000   1.0250562      0.0062211257   0.9829599     -0.034471884  
    413000   0.96771621     0.0067449818   0.91176678    -0.048751538  
    414000   1.0341871      0.0062211244   0.9945296     -0.031965212  
    415000   0.95804205     0.005539176    0.93343673    -0.017479383  
    416000   0.95037596     0.0053587074   0.90809087    -0.035216172  
    417000   1.0253291      0.0054953413   0.98328373    -0.034418946  
    418000   1.0057502      0.0058130417   0.95673556    -0.041533875  
    419000   0.98410494     0.0062802827   0.92989021    -0.046894937  
    420000   1.0065845      0.0053820353   0.94235002    -0.05674744   
    421000   1.0104107      0.0053036605   0.95251       -0.050385209  
    422000   1.0640153      0.0066234589   1.0037105     -0.052390711  
    423000   1.0494721      0.006171674    0.98142155    -0.060244587  
    424000   1.0228182      0.0063298234   0.96735165    -0.047858786  
    425000   0.98337755     0.0065589921   0.9300368     -0.046026375  
    426000   0.9807707      0.0062992613   0.93092739    -0.04254833   
    427000   1.0103939      0.0060468475   0.97034375    -0.032534807  
    428000   0.99537982     0.0059574694   0.95350194    -0.034474225  
    429000   1.0023987      0.0063938638   0.94330669    -0.051636159  
    430000   0.95962124     0.0065327624   0.89440751    -0.058076052  
    431000   0.95849712     0.0054957618   0.89829847    -0.053069331  
    432000   1.0595288      0.0066172471   1.0035498     -0.048098219  
    433000   1.0569989      0.0065282398   1.0036219     -0.045515039  
    434000   1.0430596      0.0060689333   0.98783868    -0.047462631  
    435000   0.98271445     0.0058273554   0.93080835    -0.044596657  
    436000   1.0069111      0.0057812952   0.94728365    -0.052138063  
    437000   0.94912075     0.0057768509   0.89107486    -0.050986311  
    438000   0.96258926     0.0058706303   0.88714184    -0.068287673  
    439000   1.0002635      0.0052184991   0.93498737    -0.05783617   
    440000   0.93797312     0.0062912911   0.86562117    -0.065375293  
    441000   0.97569813     0.0059828667   0.89936954    -0.069071336  
    442000   1.0656827      0.0061015609   1.0038027     -0.053953386  
    443000   1.0128746      0.0063832093   0.9506549     -0.054685951  
    444000   0.98713127     0.0057862836   0.92820937    -0.051579609  
    445000   1.0902984      0.0068075804   1.0254493     -0.056739433  
    446000   0.96181121     0.0044600146   0.88923773    -0.065419512  
    447000   0.96790256     0.0060698983   0.91127964    -0.049423643  
    448000   1.0295321      0.0061836061   0.9615787     -0.060295702  
    449000   1.0606205      0.0064882539   0.99284414    -0.059887497  
    450000   0.95552824     0.0058056592   0.91596495    -0.03245606   
    451000   0.98525538     0.0054713497   0.93329538    -0.044631654  
    452000   0.96023303     0.0050494905   0.90598695    -0.04710385   
    453000   0.98267668     0.0059518642   0.91357777    -0.061789744  
    454000   0.99198136     0.0049679683   0.93147389    -0.053129086  
    455000   0.977685       0.0060187509   0.91242579    -0.05798718   
    456000   1.0013211      0.00538933     0.92475168    -0.069121617  
    457000   1.009405       0.0064793101   0.93930142    -0.062595576  
    458000   0.95806166     0.0053856552   0.885174      -0.065761583  
    459000   0.97843474     0.0063175161   0.92061182    -0.050545301  
    460000   1.0334497      0.0059180393   0.96227826    -0.063484609  
    461000   1.1141328      0.0066464409   1.0438943     -0.061951486  
    462000   1.0897125      0.0074197408   1.022263      -0.059344198  
    463000   1.0356549      0.0063643095   0.9640652     -0.063886489  
    464000   1.0170779      0.0061916962   0.95803489    -0.051477982  
    465000   1.0547006      0.0057247343   0.99959629    -0.047259378  
    466000   0.94796022     0.0051054559   0.89412556    -0.046783722  
    467000   0.91938824     0.0049351976   0.85716115    -0.055388663  
    468000   1.0110702      0.0051315587   0.95944657    -0.044103324  
    469000   0.97568681     0.0056226201   0.91868348    -0.049746151  
    470000   0.98300898     0.0062246682   0.93045386    -0.045243482  
    471000   1.016536       0.0064575493   0.95112912    -0.057845853  
    472000   1.0300919      0.0052497932   0.97284135    -0.04958874   
    473000   0.98517823     0.0067618431   0.92740534    -0.050445112  
    474000   1.0569689      0.0062474418   0.99367689    -0.055430238  
    475000   1.0317217      0.0059731136   0.96855648    -0.05549128   
    476000   1.031922       0.0063219991   0.96702994    -0.057216615  
    477000   1.0166471      0.006465116    0.95089366    -0.058191581  
    478000   1.0373535      0.005793065    0.98004835    -0.049589287  
    479000   0.91402691     0.0057142281   0.86022542    -0.047002948  
    480000   0.99251729     0.0065028846   0.93097799    -0.054156932  
    481000   0.96385557     0.0054064291   0.90064024    -0.056046162  
    482000   1.0151312      0.0058518626   0.97157298    -0.036007628  
    483000   0.9927863      0.006444976    0.94277531    -0.042626631  
    484000   0.91232687     0.0050350737   0.85461553    -0.050925438  
    485000   1.0330199      0.0059528097   0.97668106    -0.048655181  
    486000   0.96097708     0.0058254112   0.90567273    -0.048156594  
    487000   0.88039842     0.0051183249   0.83404874    -0.039801263  
    488000   0.95519791     0.0055214996   0.90109015    -0.047002979  
    489000   0.99506006     0.0059062224   0.94142433    -0.046234456  
    490000   0.94566628     0.0056277586   0.9021969     -0.036435494  
    491000   1.0168757      0.0056660223   0.96612219    -0.043189979  
    492000   0.97206181     0.0072211884   0.90493338    -0.059898215  
    493000   1.0280198      0.0057784893   0.97501071    -0.045362669  
    494000   0.96771263     0.0061874953   0.93197687    -0.028537905  
    495000   1.0009301      0.0067221935   0.94550541    -0.047979765  
    496000   1.0202862      0.007291373    0.97535825    -0.037339033  
    497000   0.94360218     0.0055899735   0.88466826    -0.05191539   
    498000   1.0389766      0.0067707089   0.98029168    -0.050957006  
    499000   0.98429661     0.0059799251   0.92497637    -0.051999031  
    500000   1.0349121      0.0066287595   0.97297683    -0.054237597  
    501000   1.057503       0.0069465327   0.99322397    -0.056413289  
    502000   1.0167859      0.0064416675   0.96428487    -0.044938195  
    503000   0.99918561     0.0063641875   0.93879005    -0.052963593  
    504000   0.92556215     0.0069085247   0.87047384    -0.048203969  
    505000   1.0008279      0.0049070317   0.9499132     -0.043470496  
    506000   0.9440242      0.0060442813   0.88791639    -0.049086138  
    507000   1.0139603      0.0071749563   0.95852567    -0.047892763  
    508000   0.96171213     0.0060070523   0.9054348     -0.049124094  
    509000   0.97728312     0.0061607288   0.92052323    -0.04949084   
    510000   0.98991068     0.0062283978   0.94613394    -0.036413774  
    511000   0.98197759     0.0062821763   0.93639834    -0.038275292  
    512000   0.96034427     0.0064105042   0.90324475    -0.049956467  
    513000   0.97192255     0.0059190902   0.91783047    -0.046862905  
    514000   0.98652782     0.0056116658   0.93729721    -0.041892809  
    515000   1.1297569      0.0077257684   1.078254      -0.043099728  
    516000   1.0420147      0.0056866395   0.9964115     -0.037852711  
    517000   1.0323132      0.0060977791   0.98165836    -0.042976471  
    518000   0.93226627     0.0059833933   0.89019926    -0.035132802  
    519000   1.0403923      0.005859722    0.99114366    -0.041510228  
    520000   0.99342996     0.0055670677   0.94237894    -0.043661867  
    521000   0.98128361     0.0061914774   0.92921379    -0.044771008  
    522000   1.0199276      0.0070892886   0.96184126    -0.050500133  
    523000   0.98089048     0.0055195426   0.93173391    -0.04186069   
    524000   0.9874658      0.0057815625   0.93756675    -0.04255426   
    525000   0.9685304      0.0063146963   0.92101756    -0.040308897  
    526000   0.98446863     0.0061820403   0.92784663    -0.049299501  
    527000   0.97857376     0.0065086403   0.91762039    -0.053674719  
    528000   0.97572805     0.0060115077   0.92555367    -0.042916897  
    529000   0.9938092      0.0063539589   0.93557729    -0.050839937  
    530000   1.0137008      0.0066875665   0.97145741    -0.034703497  
    531000   1.0460989      0.0061707958   1.0023907     -0.035927285  
    532000   1.0352678      0.0071427432   0.96896873    -0.05859873   
    533000   0.96866073     0.0060395447   0.90977246    -0.051683348  
    534000   0.94639302     0.0054148384   0.90733331    -0.032020421  
    535000   0.9754878      0.0052880043   0.93681014    -0.031421963  
    536000   0.93408718     0.0055843071   0.89301757    -0.03412186   
    537000   1.042753       0.00594217     0.99014529    -0.044851713  
    538000   1.0691203      0.0075717224   1.0274962     -0.033672014  
    539000   0.99972456     0.0061691376   0.95502488    -0.037263707  
    540000   0.97756366     0.0067637269   0.94153697    -0.028755547  
    541000   1.0002649      0.0061985444   0.94820784    -0.044617092  
    542000   0.92297226     0.005789398    0.88757297    -0.028534211  
    543000   1.0557652      0.0061133597   1.0072487     -0.040663731  
    544000   1.0095603      0.0057072869   0.95679144    -0.045259702  
    545000   1.0220079      0.0048506133   0.97247012    -0.041936074  
    546000   0.96776899     0.0059595904   0.91309921    -0.047471503  
    547000   1.1112836      0.0064721359   1.0815495     -0.021468371  
    548000   1.0926045      0.0056913344   1.0354196     -0.049058131  
    549000   0.93721476     0.0056253298   0.87478725    -0.055456491  
    550000   1.0315144      0.0060469016   0.97548698    -0.04835502   
    551000   1.0221027      0.0062379099   0.97221279    -0.042287504  
    552000   0.99247057     0.0057969147   0.93903025    -0.046058313  
    553000   0.95173459     0.0062356139   0.89743926    -0.047216312  
    554000   0.99715277     0.0066202301   0.93916584    -0.050570093  
    555000   1.0482959      0.0061461268   0.9807528     -0.059745899  
    556000   1.0037701      0.0069054986   0.92860511    -0.067698948  
    557000   1.0123623      0.0067115157   0.95795389    -0.046878429  
    558000   0.98014193     0.006472497    0.92515533    -0.047696292  
    559000   0.97845608     0.0061294079   0.92576545    -0.04541286   
    560000   1.0118485      0.0055681433   0.95272698    -0.051595368  
    561000   0.94188321     0.0053942869   0.89251176    -0.042365703  
    562000   0.97230838     0.0056595669   0.91419918    -0.050877146  
    563000   1.037486       0.0057435948   0.98267312    -0.047095995  
    564000   0.96240123     0.0067937494   0.92016838    -0.035074493  
    565000   1.0712537      0.0068069399   1.0190327     -0.044253051  
    566000   0.9889763      0.0052489409   0.93682922    -0.044791058  
    567000   1.0627382      0.006627361    1.0015893     -0.053244246  
    568000   1.0349629      0.0061612339   0.98670815    -0.040556637  
    569000   0.99304041     0.0064152059   0.93047014    -0.055184018  
    570000   0.94255124     0.0054959756   0.8927045     -0.042836029  
    571000   0.94618801     0.0058303115   0.88859233    -0.050557916  
    572000   1.0119433      0.0059541062   0.95269414    -0.051722342  
    573000   1.0137615      0.0058361158   0.96453702    -0.041684101  
    574000   1.0308886      0.0058388659   0.98573061    -0.037490263  
    575000   0.97246657     0.0048691469   0.92162321    -0.043610143  
    576000   1.05382        0.0065580993   1.0044207     -0.04156095   
    577000   0.94380833     0.0048201701   0.8966671     -0.040121173  
    578000   1.03602        0.0054769802   0.99154761    -0.036766431  
    579000   1.0330202      0.0067680985   1.0074066     -0.017929975  
    580000   1.0439072      0.0065265771   1.0124809     -0.023661709  
    581000   0.97993376     0.0059431097   0.95373926    -0.018905731  
    582000   1.0203816      0.0065865848   0.99562913    -0.017162851  
    583000   0.98206378     0.0058952932   0.95419505    -0.020564121  
    584000   0.9322513      0.0056211099   0.8944466     -0.030870596  
    585000   1.0740957      0.0064492723   1.0424438     -0.023662784  
    586000   0.99928161     0.006158084    0.9642538     -0.027595141  
    587000   0.95768472     0.0055673362   0.92205935    -0.028502098  
    588000   0.94278993     0.0065131948   0.89612554    -0.0396519    
    589000   0.96667276     0.0053385827   0.92136323    -0.0381194    
    590000   1.0646619      0.0067224538   1.0303026     -0.026440297  
    591000   1.025466       0.0066833115   0.99264492    -0.025193679  
    592000   0.99969937     0.0068615523   0.96175374    -0.030509846  
    593000   0.97967684     0.0054471408   0.93915678    -0.033233208  
    594000   0.98928258     0.0072563128   0.9596101     -0.022314188  
    595000   1.0115445      0.0057732215   0.98146266    -0.022558004  
    596000   1.0710027      0.0072636314   1.0455686     -0.017467946  
    597000   1.003435       0.0056673826   0.97138074    -0.024590706  
    598000   0.97898736     0.0058586951   0.93327574    -0.038429899  
    599000   0.98791984     0.0052062338   0.94552464    -0.035047033  
    600000   1.0172444      0.0072081562   0.96873979    -0.04093836   
    601000   1.0023374      0.0069303301   0.95305438    -0.041827583  
    602000   0.9944505      0.005945018    0.9455107     -0.041543063  
    603000   1.0093633      0.0051242646   0.96915764    -0.032698011  
    604000   0.9562229      0.0062531319   0.90461949    -0.044491007  
    605000   0.98264114     0.0055575265   0.9323658     -0.042966445  
    606000   1.0400691      0.0055055672   0.99826067    -0.034072402  
    607000   0.97075009     0.0054625615   0.92179265    -0.041736991  
    608000   1.0206448      0.0064954061   0.96602634    -0.047026843  
    609000   0.98101937     0.0059559864   0.93202865    -0.041693884  
    610000   0.98532138     0.0069210435   0.93499795    -0.042994588  
    611000   1.0018425      0.0066027878   0.96310829    -0.031282505  
    612000   0.9599118      0.0055499351   0.91861591    -0.034156056  
    613000   1.0383008      0.0070176919   0.98908181    -0.041496121  
    614000   1.0242394      0.0067456863   0.97403478    -0.042586328  
    615000   1.013485       0.0067495755   0.96137122    -0.044575476  
    616000   0.95783184     0.0058063911   0.91162475    -0.039082719  
    617000   0.98076043     0.0056547993   0.9144359     -0.05902962   
    618000   0.92607174     0.0061745783   0.87133806    -0.047845548  
    619000   0.96239291     0.0050581015   0.91835336    -0.036881255  
    620000   0.98433824     0.0056324814   0.93412546    -0.042891259  
    621000   1.0199155      0.0054021488   0.97175737    -0.040572005  
    622000   0.99270455     0.0057781924   0.92525198    -0.060068815  
    623000   1.0360266      0.0056968752   0.98647095    -0.041849673  
    624000   0.94937336     0.0058881746   0.89877441    -0.043537498  
    625000   0.9160086      0.0055511951   0.86590906    -0.043286254  
    626000   1.0023502      0.0061534703   0.94820289    -0.046691852  
    627000   1.07047        0.0074257312   1.0225138     -0.039994052  
    628000   0.99203387     0.006820311    0.94459607    -0.040059031  
    629000   0.95231963     0.0053126392   0.89689762    -0.048338632  
    630000   1.000153       0.0061683439   0.93464907    -0.058064799  
    631000   0.96874182     0.0060328896   0.89826788    -0.063268422  
    632000   0.96981635     0.0060603314   0.90452019    -0.05808265   
    633000   0.98875476     0.0061686435   0.92238593    -0.059014459  
    634000   1.061052       0.0061854198   0.98972421    -0.063435626  
    635000   1.010639       0.0059851002   0.96150001    -0.041621872  
    636000   0.9618698      0.0055864077   0.90535826    -0.049357131  
    637000   0.95021392     0.0051940825   0.89835855    -0.044787666  
    638000   1.0145388      0.0054301171   0.96572354    -0.041269062  
    639000   1.0253121      0.0064418053   0.9873194     -0.03036645   
    640000   0.94468271     0.0059442989   0.88633484    -0.051321313  
    641000   0.99649962     0.0058636215   0.93852761    -0.050560035  
    642000   0.98985097     0.0052948234   0.91951579    -0.062972653  
    643000   0.98308843     0.0062686622   0.91832456    -0.057451642  
    644000   1.0215462      0.0057503364   0.97021887    -0.043729069  
    645000   0.98535165     0.0052111357   0.93358744    -0.044435145  
    646000   1.0228207      0.0072538861   0.97718862    -0.038024343  
    647000   0.97547322     0.0063873234   0.93080293    -0.037414709  
    648000   0.98271643     0.0063312802   0.93963946    -0.035767512  
    649000   1.0113682      0.0060587042   0.96244484    -0.041400803  
    650000   0.98775205     0.0061572376   0.94417641    -0.036228724  
    651000   1.0004002      0.0060596442   0.95243587    -0.040523319  
    652000   1.0389387      0.0062676178   0.9820258     -0.049185292  
    653000   0.99507356     0.0061034122   0.94615471    -0.041517483  
    654000   1.001822       0.0065120525   0.9521509     -0.042219577  
    655000   0.93258319     0.0056902313   0.87311258    -0.052534038  
    656000   0.97540401     0.0064197108   0.9117487     -0.056400246  
    657000   0.96914863     0.0062700613   0.90993458    -0.052005508  
    658000   1.0282894      0.0051182904   0.97149936    -0.049141624  
    659000   0.99867027     0.0064543046   0.95050467    -0.040737469  
    660000   0.98986343     0.0054495847   0.9435643     -0.03893651   
    661000   1.0134941      0.0055708532   0.95986019    -0.046095564  
    662000   0.93244323     0.0059165665   0.8674034     -0.058104305  
    663000   1.010677       0.0069399524   0.96487973    -0.038279822  
    664000   1.0007317      0.0064037809   0.94091819    -0.052370012  
    665000   1.0162424      0.0063154058   0.96929135    -0.039392251  
    666000   0.94840436     0.0066436376   0.89299085    -0.048359263  
    667000   1.0657717      0.0073681729   1.0081694     -0.049675119  
    668000   0.9513724      0.0067289547   0.88753358    -0.056762491  
    669000   1.0424066      0.0055275202   0.98375632    -0.050896864  
    670000   1.0002364      0.0055889202   0.95291405    -0.039882612  
    671000   0.9938906      0.0065324712   0.94531763    -0.041180403  
    672000   1.0481378      0.0062750685   1.011005      -0.0293368    
    673000   1.0513761      0.0055027083   1.0247284     -0.018827525  
    674000   0.98332987     0.0071590126   0.94511927    -0.030896576  
    675000   1.0112352      0.0061314408   0.97814564    -0.025567966  
    676000   0.94331257     0.0062801319   0.91890255    -0.017393649  
    677000   1.0057243      0.0058163982   0.98512316    -0.013120591  
    678000   1.0155541      0.0067327019   0.9922587     -0.015741667  
    679000   1.0009975      0.0076608394   0.97632708    -0.017225013  
    680000   1.0059025      0.0064868488   0.97440373    -0.024016806  
    681000   0.96827512     0.0061280724   0.94654568    -0.014527398  
    682000   0.8920404      0.0057092211   0.8495192     -0.035886192  
    683000   0.9960484      0.0055385857   0.96812073    -0.020519041  
    684000   1.0463285      0.0066541477   1.0074132     -0.031132782  
    685000   0.98388337     0.0064531999   0.94300582    -0.033559412  
    686000   0.93766445     0.0056080673   0.88799085    -0.042699228  
    687000   0.96055814     0.0057330456   0.91565499    -0.037758502  
    688000   1.0223533      0.0069500063   0.9770847     -0.037664291  
    689000   1.0097577      0.0076923661   0.96583282    -0.036414241  
    690000   1.0179135      0.0063051451   0.97318039    -0.037161886  
    691000   0.96997578     0.0056718161   0.93694724    -0.025813842  
    692000   1.0065509      0.0060243816   0.95845511    -0.040609081  
    693000   1.0054215      0.0062439594   0.96690986    -0.031033282  
    694000   0.98639254     0.0056508638   0.95282039    -0.026235346  
    695000   0.930091       0.0067456803   0.88981258    -0.033360388  
    696000   1.0575542      0.006782304    1.0105163     -0.039171773  
    697000   0.9446549      0.0064257031   0.90006665    -0.037561882  
    698000   0.95064428     0.0060283527   0.90586971    -0.037703662  
    699000   1.0079238      0.0057642132   0.96160119    -0.038825676  
    700000   1.0019284      0.0054524032   0.95215623    -0.04231985   
    701000   1.0509011      0.0069043684   1.0009441     -0.042140368  
    702000   1.0457449      0.0063065205   1.0049838     -0.03298281   
    703000   1.087094       0.0066155411   1.0416165     -0.037391638  
    704000   1.0224006      0.0064657798   0.98183883    -0.032957171  
    705000   1.0267495      0.0072167479   0.9863042     -0.032808313  
    706000   1.0045658      0.0050062975   0.96229863    -0.034795223  
    707000   1.0807588      0.0060322712   1.0360571     -0.036663026  
    708000   0.95006933     0.0055255698   0.91393347    -0.029069224  
    709000   0.99172626     0.0067685101   0.94916036    -0.035189423  
    710000   1.0371704      0.0058274174   1.0131795     -0.01627647   
    711000   1.071869       0.0067699707   1.04146       -0.022436401  
    712000   0.99496476     0.006540102    0.96853962    -0.019024579  
    713000   1.1000876      0.0065930185   1.0682714     -0.02363372   
    714000   1.0199665      0.006338274    0.98717111    -0.025208877  
    715000   0.96378847     0.0058565651   0.93896727    -0.017652523  
    716000   1.0265259      0.0066114491   0.99246662    -0.026423958  
    717000   1.0199092      0.0061329392   0.98498046    -0.027342661  
    718000   1.02917        0.0064480916   0.99880359    -0.022711474  
    719000   0.98838814     0.0051202788   0.95598345    -0.025053044  
    720000   1.0201869      0.007080358    0.98494046    -0.027658295  
    721000   0.94526402     0.0051422151   0.90320003    -0.035033099  
    722000   1.0292636      0.005406992    0.99378879    -0.027819102  
    723000   0.93717969     0.0054780893   0.90838603    -0.0218229    
    724000   0.99311104     0.0058480529   0.95730101    -0.028423249  
    725000   0.98681002     0.0065040138   0.95018616    -0.029283957  
    726000   1.0244206      0.006191644    0.9938209     -0.022980065  
    727000   1.0098707      0.0055284729   0.96949517    -0.032864135  
    728000   0.97103377     0.0053538452   0.92103247    -0.042778733  
    729000   1.0416844      0.0065002206   0.99947076    -0.034465618  
    730000   1.005621       0.0062864388   0.96717962    -0.030961542  
    731000   1.0230364      0.0060446032   0.99740775    -0.018019255  
    732000   1.0063115      0.0064691189   0.96740064    -0.031425926  
    733000   0.98152845     0.0056989231   0.94817408    -0.026053751  
    734000   1.0139165      0.006526412    0.97508885    -0.031286159  
    735000   1.0018034      0.0073450489   0.96003544    -0.034316512  
    736000   0.94932074     0.0059358533   0.90375908    -0.038500597  
    737000   0.98198        0.004550092    0.93217452    -0.042501498  
    738000   1.0290747      0.0059926567   0.99003192    -0.031388516  
    739000   1.0008364      0.0056975812   0.95192756    -0.041464611  
    740000   0.93887838     0.0056051039   0.89253539    -0.039359593  
    741000   1.0051711      0.005993252    0.95674978    -0.04094487   
    742000   0.95089844     0.0055303379   0.92043433    -0.023391311  
    743000   1.0286646      0.0053621287   0.99847939    -0.022533988  
    744000   0.99045961     0.0058212855   0.94680207    -0.03629048   
    745000   1.0045675      0.0065457183   0.9563263     -0.040769232  
    746000   1.0074711      0.0066357091   0.97046493    -0.029512574  
    747000   0.96752322     0.0055674431   0.92812147    -0.032205294  
    748000   0.94735142     0.0056268704   0.91087891    -0.029426103  
    749000   1.0466554      0.0059506792   1.0095984     -0.029271871  
    750000   0.99290561     0.0074018814   0.95036991    -0.035150451  
    751000   1.0304373      0.0070580042   0.98778681    -0.034986048  
    752000   1.0415468      0.0062953729   0.99945707    -0.034342717  
    753000   1.0631622      0.0065567149   1.0138659     -0.041388406  
    754000   1.0264204      0.0060013554   0.9774411     -0.041344805  
    755000   0.98696143     0.0060264004   0.9388656     -0.04075479   
    756000   0.93487111     0.0052730513   0.87369343    -0.054224087  
    757000   1.007574       0.0072817648   0.95249181    -0.047587793  
    758000   0.96091373     0.0057193967   0.91815554    -0.035610896  
    759000   0.96538081     0.0056923134   0.91553815    -0.042662142  
    760000   0.99277407     0.0066802222   0.9321453     -0.053244502  
    761000   1.0654576      0.0056318395   1.0176678     -0.03986491   
    762000   1.0160956      0.0068018312   0.97928151    -0.02925637   
    763000   1.0869975      0.0072366671   1.0491393     -0.029773104  
    764000   1.0316506      0.0062993849   0.98729321    -0.036683991  
    765000   1.0092534      0.0057943569   0.97038634    -0.031360197  
    766000   0.93053874     0.0063042664   0.88716525    -0.036452125  
    767000   1.025569       0.006566287    0.98041154    -0.037529214  
    768000   1.0431409      0.0062848074   1.0062585     -0.029123501  
    769000   0.99624146     0.0063207166   0.95959603    -0.029235372  
    770000   0.98609602     0.0068861729   0.94546922    -0.033292202  
    771000   0.94815867     0.0061695246   0.90225661    -0.03884964   
    772000   1.0232105      0.0076187975   0.98427996    -0.031319898  
    773000   0.98159547     0.0063377515   0.92201436    -0.05227998   
    774000   0.87338837     0.0052227655   0.81137372    -0.055518378  
    775000   0.98465679     0.0066796806   0.92903888    -0.048294015  
    776000   1.0258964      0.005751369    0.98046141    -0.037804366  
    777000   0.98564005     0.0061789124   0.93957333    -0.038735508  
    778000   0.96235204     0.0057667578   0.89856254    -0.056631511  
    779000   0.98911393     0.0055841371   0.92755002    -0.054206865  
    780000   1.0966193      0.0068948169   1.0257771     -0.062685556  
    781000   1.044144       0.0064584539   0.98653142    -0.049846236  
    782000   1.0245247      0.0060966354   0.96417661    -0.052727615  
    783000   1.0497863      0.0055917257   0.99488747    -0.047090454  
    784000   1.0073403      0.005583103    0.9426322     -0.057215491  
    785000   0.99157795     0.0054149496   0.92333157    -0.060871012  
    786000   0.99030628     0.0061267185   0.92923289    -0.053707473  
    787000   1.0611666      0.0067492723   1.0044609     -0.048812692  
    788000   0.97408882     0.0041195129   0.91217192    -0.054671611  
    789000   0.93987114     0.0052744247   0.86782997    -0.065050387  
    790000   0.94271244     0.0063114019   0.87477548    -0.060925049  
    791000   1.0443327      0.0059743432   0.9818704     -0.054694499  
    792000   1.061499       0.0070097878   0.99744963    -0.056153911  
    793000   0.95282034     0.0049923247   0.88113098    -0.064602265  
    794000   0.97899683     0.0054556411   0.90866244    -0.063052599  
    795000   1.0153069      0.0063602549   0.94493825    -0.062816802  
    796000   0.92801616     0.0056239643   0.85985414    -0.061259411  
    797000   1.0052488      0.0059523133   0.95404117    -0.043730583  
    798000   1.0075183      0.0056988053   0.94676073    -0.053263631  
    799000   1.0063437      0.0071252697   0.94749997    -0.05135851   
    800000   1.0284863      0.0064758795   0.9461655     -0.074670856  
    801000   1.0229859      0.0060606309   0.95716931    -0.058207644  
    802000   1.0614876      0.0064437212   1.0089655     -0.044626721  
    803000   1.0793744      0.0078187792   1.0170635     -0.054282532  
    804000   0.98746623     0.0057226626   0.94503016    -0.03509128   
    805000   1.0036274      0.0054235969   0.94644547    -0.049716916  
    806000   0.98142253     0.0060990509   0.92760395    -0.046518745  
    807000   1.0176763      0.0058698841   0.94981265    -0.060294116  
    808000   0.9044725      0.005040312    0.86965212    -0.028092904  
    809000   1.0261027      0.0072218685   0.96569387    -0.05277664   
    810000   1.0024131      0.0059909484   0.9476462     -0.047310886  
    811000   0.98455394     0.0060387507   0.92504984    -0.052180972  
    812000   1.0414173      0.0066241849   0.97927035    -0.054400905  
    813000   1.0149097      0.0060645446   0.95239726    -0.0549635    
    814000   1.0196051      0.0060562607   0.96858486    -0.043436413  
    815000   1.0082759      0.0065483099   0.95578191    -0.044994388  
    816000   0.98183911     0.0062597145   0.93092078    -0.043615388  
    817000   0.93707649     0.0053340924   0.88584187    -0.044264629  
    818000   1.0075164      0.0057744875   0.965664      -0.034358496  
    819000   1.0506554      0.0060902043   0.9875857     -0.055254894  
    820000   0.96653585     0.0062870048   0.89967581    -0.059670936  
    821000   0.97343913     0.0057889996   0.91512781    -0.051070862  
    822000   1.0101618      0.0052585843   0.93724898    -0.065399224  
    823000   1.0314437      0.006922519    0.95336176    -0.070410028  
    824000   1.0448407      0.0059058564   0.98285074    -0.054218428  
    825000   1.0214053      0.0063954588   0.95186745    -0.061940665  
    826000   0.98541298     0.0064138631   0.92936144    -0.048722023  
    827000   0.97977613     0.0061134696   0.8972622     -0.075226348  
    828000   0.95591735     0.0062475066   0.8813465     -0.067460713  
    829000   0.95514625     0.0055437082   0.86885371    -0.079188144  
    830000   1.0048431      0.0053499252   0.93567316    -0.0616959    
    831000   0.97395939     0.006018346    0.90403775    -0.062677317  
    832000   0.95528365     0.0065117339   0.89636771    -0.051810522  
    833000   1.0010515      0.0062912026   0.94237746    -0.051228238  
    834000   1.0193396      0.0063439889   0.92794972    -0.083808005  
    835000   0.93887596     0.0069404737   0.84394402    -0.087948564  
    836000   1.0158931      0.0065632122   0.92418988    -0.084147028  
    837000   1.0231596      0.0058793829   0.96123299    -0.054316357  
    838000   1.0558099      0.0065481559   0.98175893    -0.066197884  
    839000   0.99816766     0.005713836    0.92331935    -0.067423927  
    840000   1.0376801      0.0063538093   0.95328377    -0.076678064  
    841000   0.99981063     0.0055108074   0.93865318    -0.053720839  
    842000   0.97528481     0.0057645797   0.89462037    -0.07341026   
    843000   0.98627855     0.0056153387   0.93609176    -0.042850831  
    844000   1.0165955      0.006737986    0.96942361    -0.039610417  
    845000   1.0733645      0.0065287861   1.0035347     -0.061846069  
    846000   1.0433097      0.0071473064   0.97127619    -0.064273385  
    847000   0.99751496     0.0059264811   0.94294249    -0.04715294   
    848000   1.041625       0.0059808448   0.98211289    -0.051764484  
    849000   0.94748327     0.0066371713   0.88403925    -0.056396623  
    850000   1.0747198      0.0060484085   1.0004851     -0.066240932  
    851000   0.99781987     0.0068762567   0.93983818    -0.050559894  
    852000   0.96617592     0.0063214816   0.9186171     -0.040372388  
    853000   0.99869265     0.0060396328   0.94212805    -0.049136312  
    854000   0.99036173     0.0056466931   0.94415697    -0.038838435  
    855000   0.95400772     0.0058922351   0.91975504    -0.027156757  
    856000   1.0409604      0.0062784327   1.0081472     -0.025070541  
    857000   0.9353408      0.0056814999   0.8921679     -0.036215823  
    858000   1.0263351      0.0061133189   0.97758215    -0.041119024  
    859000   1.0223173      0.0074112777   0.96186124    -0.052852064  
    860000   1.027073       0.0063030619   0.97388081    -0.045552779  
    861000   1.0204159      0.0060788302   0.98436275    -0.028463279  
    862000   1.0440572      0.0057100135   0.9827911     -0.053500387  
    863000   1.0017947      0.0067840296   0.9419099     -0.052433486  
    864000   1.0379903      0.0055468003   0.98834505    -0.041924663  
    865000   1.0085895      0.0056032643   0.96349839    -0.03758922   
    866000   1.0201506      0.0054979419   0.98322735    -0.029335369  
    867000   0.96835641     0.0059967039   0.9264973     -0.034656458  
    868000   1.021195       0.0063833105   0.9742313     -0.039368065  
    869000   0.99037014     0.0060029942   0.9674703     -0.01553345   
    870000   0.98474865     0.0058649556   0.95192982    -0.025494246  
    871000   0.91299312     0.0054290122   0.87209455    -0.034107712  
    872000   1.0142248      0.0068158815   0.9778398     -0.028841156  
    873000   1.0170972      0.0057802418   0.94965044    -0.059881535  
    874000   0.98007178     0.0063027408   0.92206985    -0.050712145  
    875000   0.99285064     0.0056934505   0.9352174     -0.050248403  
    876000   0.98959912     0.0057342258   0.92987992    -0.052358547  
    877000   1.0529254      0.0065133581   0.99548379    -0.049609962  
    878000   0.9356379      0.0049022922   0.87643888    -0.052239725  
    879000   0.98554568     0.0056754287   0.9359824     -0.042232778  
    880000   1.0144706      0.0062030894   0.96370934    -0.043215562  
    881000   0.96501758     0.0059071495   0.91202463    -0.045815131  
    882000   1.0110826      0.0068845597   0.96408303    -0.039479109  
    883000   0.95054308     0.0058843148   0.90818455    -0.035288379  
    884000   0.96756211     0.0057147795   0.92129901    -0.039066356  
    885000   1.074776       0.0071324006   1.0260474     -0.040734368  
    886000   0.97821623     0.0059571972   0.93243802    -0.038502224  
    887000   0.99512901     0.0052375056   0.93861745    -0.049109772  
    888000   1.0316868      0.0059103443   0.96724038    -0.056772722  
    889000   1.0199026      0.0051237183   0.9565759     -0.055740682  
    890000   0.98499023     0.0050100391   0.93090062    -0.046763237  
    891000   0.991165       0.0063884912   0.93398294    -0.049809767  
    892000   0.96487602     0.0050989598   0.91899085    -0.038708405  
    893000   1.0436259      0.0056417681   0.98215926    -0.053704163  
    894000   1.0591771      0.0069185695   1.0133767     -0.037922226  
    895000   1.0296059      0.0057859969   0.96426893    -0.057678774  
    896000   0.98016959     0.0065848145   0.93898512    -0.033893952  
    897000   0.94790069     0.0061983565   0.88283022    -0.058019962  
    898000   1.0334699      0.0062512626   0.97748877    -0.048294203  
    899000   1.0220295      0.0066662192   0.96413567    -0.05029194   
    900000   1.0128243      0.0057374823   0.96313237    -0.04215857   
    901000   0.99095142     0.0057837295   0.93778525    -0.045795464  
    902000   1.0498499      0.0063519678   1.0086425     -0.033398549  
    903000   0.9795442      0.006647845    0.9294982     -0.042760131  
    904000   1.0077803      0.0058027203   0.96144182    -0.038842614  
    905000   0.99977824     0.0067386691   0.94117402    -0.051167857  
    906000   1.0115889      0.0061345986   0.96668078    -0.037383943  
    907000   0.98270151     0.006255893    0.91922826    -0.056163905  
    908000   0.93211646     0.0054636927   0.88007271    -0.045110652  
    909000   1.0189472      0.0054346185   0.96500058    -0.046367649  
    910000   1.0016261      0.0066866403   0.94457393    -0.049602085  
    911000   0.99212116     0.006505766    0.93309821    -0.051643541  
    912000   1.0612644      0.0058408705   1.0278568     -0.025513927  
    913000   0.95529774     0.0050409432   0.8997375     -0.048454725  
    914000   1.0242548      0.0055895952   0.96981825    -0.046818154  
    915000   0.98079167     0.0062497421   0.93467622    -0.038820308  
    916000   1.0416854      0.0056214138   0.97832227    -0.055615101  
    917000   1.0017283      0.0063119888   0.943823      -0.050454434  
    918000   0.95531236     0.0064644782   0.90532       -0.042886727  
    919000   0.9939651      0.0068672025   0.95889313    -0.027678839  
    920000   0.96199127     0.0058599212   0.91687251    -0.037963459  
    921000   1.0629577      0.007053002    1.0343353     -0.020716157  
    922000   0.96686072     0.0061699712   0.92850191    -0.031167278  
    923000   1.0261947      0.0065546819   0.99347898    -0.025082884  
    924000   0.9951606      0.0049578728   0.96038338    -0.027375197  
    925000   1.1406793      0.0070738135   1.0990317     -0.033163293  
    926000   1.0041806      0.0064315376   0.95468478    -0.042026699  
    927000   1.0225665      0.006269489    0.96973232    -0.045228312  
    928000   0.99497202     0.0061223911   0.94495861    -0.042612797  
    929000   0.94052608     0.0055154538   0.88393149    -0.049598949  
    930000   1.0177133      0.0059860735   0.95766015    -0.052483424  
    931000   0.89825761     0.0057256705   0.85096663    -0.040609724  
    932000   0.9889891      0.0064124944   0.94268148    -0.0389515    
    933000   0.99841749     0.0073313081   0.9576529     -0.033338348  
    934000   0.99778086     0.005934247    0.94726827    -0.043091077  
    935000   0.93537579     0.0056646881   0.88958352    -0.038834926  
    936000   0.99856032     0.0070180157   0.94064496    -0.050488052  
    937000   0.99841726     0.0065376196   0.95072122    -0.040269805  
    938000   0.98994174     0.005667603    0.95745197    -0.025126565  
    939000   0.9020953      0.0048928635   0.87855226    -0.016833243  
    940000   1.0061879      0.0059263301   0.97713401    -0.021569812  
    941000   0.9871298      0.0057670676   0.95824671    -0.021540802  
    942000   1.030363       0.0055183345   0.9919527     -0.030746448  
    943000   0.90364014     0.0047243579   0.87156211    -0.025356744  
    944000   0.98832782     0.0061858602   0.96206515    -0.018911463  
    945000   1.0274959      0.0058252337   1.0039653     -0.015888154  
    946000   0.98542105     0.0057752809   0.95585896    -0.022232511  
    947000   0.96945721     0.0053105126   0.92946851    -0.032777855  
    948000   1.0732649      0.0063286708   1.0225966     -0.042685397  
    949000   0.95638133     0.0054484607   0.9192336     -0.030034145  
    950000   1.0364075      0.0059608743   0.9957203     -0.032978405  
    951000   0.98579641     0.006119796    0.93056117    -0.047902868  
    952000   1.0223029      0.0063318703   0.99200703    -0.022691994  
    953000   1.0008018      0.0065381849   0.95142948    -0.041928359  
    954000   1.0930035      0.0069571032   1.0474386     -0.037435189  
    955000   1.0376838      0.0065858515   0.98868884    -0.041276607  
    956000   1.0231594      0.0057028915   0.96483552    -0.050713651  
    957000   1.0142752      0.0070098057   0.96835391    -0.038377085  
    958000   0.96032367     0.0060537577   0.90639282    -0.046787953  
    959000   1.0805089      0.0071767168   1.0321662     -0.040305879  
    960000   1.0033588      0.0058628367   0.96600581    -0.029889964  
    961000   0.98357624     0.0056869487   0.93288803    -0.043372359  
    962000   0.98149367     0.0064868109   0.93568564    -0.038507661  
    963000   0.9762468      0.0056262072   0.92729011    -0.041695342  
    964000   0.96726689     0.0059135296   0.90882935    -0.051242993  
    965000   1.078278       0.0064062833   1.0270444     -0.043213404  
    966000   1.0391997      0.0071259342   0.99527557    -0.036194519  
    967000   1.0251547      0.006344936    0.99152022    -0.02600936   
    968000   0.97954217     0.0058216989   0.94495577    -0.027300548  
    969000   0.98460247     0.006448706    0.93528634    -0.041992645  
    970000   1.0789721      0.0069516085   1.0176783     -0.053268421  
    971000   1.0231276      0.0058815836   0.96975232    -0.045765191  
    972000   1.0596476      0.0057804529   1.0093345     -0.042431444  
    973000   1.0588869      0.0063625961   1.0216617     -0.029349188  
    974000   0.99224342     0.0056817256   0.94653482    -0.038328281  
    975000   1.0079879      0.0065918542   0.96276745    -0.037723019  
    976000   0.97247123     0.0056960745   0.92967337    -0.035564594  
    977000   0.97186768     0.0057684692   0.92735939    -0.037279518  
    978000   0.96078537     0.0062290525   0.91462548    -0.039013555  
    979000   0.99089602     0.0063594109   0.93493859    -0.048587131  
    980000   0.98168456     0.0066900043   0.9328365     -0.041546279  
    981000   1.0406623      0.0062107347   0.98474909    -0.048172745  
    982000   0.96351735     0.0050708086   0.90731498    -0.049035708  
    983000   0.99520295     0.0057052226   0.93559505    -0.052205564  
    984000   0.94381586     0.0063341936   0.90367318    -0.033122555  
    985000   1.0209217      0.006180954    0.97249747    -0.040830638  
    986000   1.0773774      0.0063591852   1.0357586     -0.033605211  
    987000   0.98760721     0.0061571244   0.94329757    -0.036963804  
    988000   0.99191931     0.0067931911   0.94844279    -0.03609861   
    989000   1.0744515      0.0054371128   1.0277675     -0.038692218  
    990000   0.99908985     0.0064439099   0.9575304     -0.034128204  
    991000   0.97117525     0.0058391583   0.94282342    -0.021128215  
    992000   0.98132969     0.0064680226   0.95555472    -0.018475826  
    993000   0.9514461      0.0061277043   0.9197436     -0.024625623  
    994000   0.94298396     0.0049775956   0.9126881     -0.023281935  
    995000   0.96624248     0.0061825098   0.93275484    -0.02630071   
    996000   1.0025108      0.0062761852   0.97144162    -0.023612469  
    997000   1.0124472      0.0055193426   0.98094342    -0.023973181  
    998000   1.0156108      0.006213314    0.98542525    -0.022631427  
    999000   0.98048923     0.0049966494   0.94633489    -0.026861444  
   1000000   0.99167148     0.0067612084   0.96234022    -0.021955194  
Loop time of 29.4183 on 1 procs for 1000000 steps with 605 atoms

Performance: 29369513.122 tau/day, 33992.492 timesteps/s
98.3% CPU use with 1 MPI tasks x no OpenMP threads

MPI task timing breakdown:
Section |  min time  |  avg time  |  max time  |%varavg| %total
---------------------------------------------------------------
Pair    | 1.5059     | 1.5059     | 1.5059     |   0.0 |  5.12
Bond    | 0.046016   | 0.046016   | 0.046016   |   0.0 |  0.16
Neigh   | 7.3281     | 7.3281     | 7.3281     |   0.0 | 24.91
Comm    | 1.4296     | 1.4296     | 1.4296     |   0.0 |  4.86
Output  | 0.5459     | 0.5459     | 0.5459     |   0.0 |  1.86
Modify  | 16.471     | 16.471     | 16.471     |   0.0 | 55.99
Other   |            | 2.092      |            |       |  7.11

Nlocal:            605 ave         605 max         605 min
Histogram: 1 0 0 0 0 0 0 0 0 0
Nghost:            103 ave         103 max         103 min
Histogram: 1 0 0 0 0 0 0 0 0 0
Neighs:             13 ave          13 max          13 min
Histogram: 1 0 0 0 0 0 0 0 0 0

Total # of neighbors = 13
Ave neighs/atom = 0.021487603
Ave special neighs/atom = 0
Neighbor list builds = 218366
Dangerous builds = 0
Total wall time: 0:00:29
