fix fLANG all langevin 1.0 1.0 1.0 100
neigh_modify exclude molecule/intra all
fix rigidNVE linked_vesicle rigid/nve molecule
  1 rigid bodies with 5 atoms
fix NVE synapsin nve 1.0 1.0 1.0

    ##======================================##
    ## Output
    ##======================================##

thermo 1000
thermo_style custom step temp press etotal epair
thermo_modify flush yes
timestep 0.01

    ##======================================##
    ## Equilibration before output
    ##======================================##


    ##======================================##
    ## Run with output
    ##======================================##

fix enforce_2d all enforce2d
dump 2 all custom 1000 Results_eps_attr5_eps_rep1_eps_rep_weak0_range2_attr_with_repFalse_n_synapsin600_n_vesicles1/Movie_2d_eps_attr5_eps_rep1_eps_rep_weak0_range2_attr_with_repFalse_n_synapsin600_n_vesicles1.xyz id type mol x y z
run 1000000
Generated 0 of 3 mixed pair_coeff terms from geometric mixing rule
Neighbor list info ...
  update every 1 steps, delay 1 steps, check yes
  max neighbors/atom: 2000, page size: 100000
  master list distance cutoff = 11.52462
  ghost atom cutoff = 11.52462
  binsize = 5.7623102, bins = 55 55 1
  1 neighbor lists, perpetual/occasional/extra = 1 0 0
  (1) pair cosine/squared, perpetual
      attributes: half, newton on
      pair build: half/bin/newton
      stencil: half/bin/2d
      bin: standard
Per MPI rank memory allocation (min/avg/max) = 8.538 | 8.538 | 8.538 Mbytes
   Step          Temp          Press          TotEng         E_pair    
         0   0.99428594     0.0097669004   0.98689042     0            
      1000   0.97854089     0.0064911198   0.96320314    -0.0080593542 
      2000   1.0448375      0.0065275949   1.0216289     -0.015437073  
      3000   1.0741074      0.0061854537   1.0437532     -0.022365004  
      4000   0.95725587     0.0062669995   0.92927838    -0.020857406  
      5000   1.0069501      0.0060479161   0.97844381    -0.021016533  
      6000   1.0072555      0.0060530594   0.97694855    -0.022814982  
      7000   0.94299739     0.0049977524   0.91261252    -0.023370843  
      8000   1.005067       0.006007545    0.98249369    -0.01509757   
      9000   0.95170486     0.0058863491   0.92909781    -0.01552826   
     10000   0.95851865     0.0062547299   0.93526225    -0.016126925  
     11000   1.0403924      0.0076236927   1.0007534     -0.03190059   
     12000   0.99965582     0.0063885228   0.95856364    -0.033656729  
     13000   1.0013926      0.0055898684   0.9590822     -0.034862044  
     14000   0.96945565     0.0061457477   0.93749543    -0.024749395  
     15000   0.98378972     0.0053202541   0.95168775    -0.024784529  
     16000   0.94012048     0.0046624661   0.9052542     -0.027873644  
     17000   1.0917804      0.007318982    1.0508824     -0.03277732   
     18000   0.91463986     0.0058810474   0.87901686    -0.028819889  
     19000   0.92995878     0.0053128649   0.89392584    -0.029115895  
     20000   1.0393101      0.0068271985   1.0042387     -0.027340977  
     21000   0.93154514     0.0049487923   0.89189233    -0.032723966  
     22000   0.95470868     0.0063564267   0.91712097    -0.030486571  
     23000   0.97041468     0.0068333681   0.93197121    -0.031225503  
     24000   0.94694718     0.0064763915   0.9000735     -0.039830266  
     25000   1.0265246      0.0071380545   0.97522688    -0.043662436  
     26000   0.94806429     0.0060856149   0.90252486    -0.038487705  
     27000   1.0452317      0.0070913803   1.0005672     -0.03689008   
     28000   1.0289827      0.0054495448   0.97780938    -0.043519688  
     29000   1.0216986      0.0064008133   0.98169538    -0.032403828  
     30000   0.99814595     0.0065696753   0.94960054    -0.041121191  
     31000   1.0119395      0.0062401046   0.95315755    -0.051255178  
     32000   1.0686781      0.0077287026   1.0229558     -0.037773461  
     33000   0.98902435     0.0048482984   0.932225      -0.049442966  
     34000   1.0011094      0.0059565447   0.95661618    -0.037046912  
     35000   1.0631644      0.0068241185   1.0088944     -0.046362228  
     36000   0.94405723     0.0055157449   0.9123424     -0.024692924  
     37000   1.0177781      0.0069089849   0.97975692    -0.030450933  
     38000   1.0029471      0.0064405216   0.95926729    -0.036219835  
     39000   0.99747695     0.0065235952   0.95012926    -0.039928441  
     40000   1.0362232      0.0051116266   0.9728776     -0.055638186  
     41000   1.0464216      0.0064839614   0.9889568     -0.049681539  
     42000   0.90674442     0.00534828     0.84649568    -0.053504362  
     43000   0.96938646     0.0052514468   0.91881855    -0.043357597  
     44000   1.0619964      0.0066922584   1.005139      -0.04895819   
     45000   1.0913092      0.0063563617   1.0296419     -0.05355015   
     46000   0.94117118     0.0059831374   0.87323487    -0.060935867  
     47000   0.97479678     0.0061664907   0.91641237    -0.05113385   
     48000   0.98150478     0.006297866    0.91749771    -0.056706628  
     49000   1.0207657      0.0071217855   0.95899566    -0.054177567  
     50000   0.93296646     0.0053825058   0.87103946    -0.054987585  
     51000   1.0424155      0.0059367824   0.96702998    -0.06763203   
     52000   0.93898708     0.006372476    0.86273276    -0.069270114  
     53000   1.0409477      0.005395426    0.97010775    -0.063097379  
     54000   1.0221575      0.0062389123   0.93801643    -0.076538219  
     55000   1.0000219      0.0062412866   0.92149023    -0.071093513  
     56000   0.94855473     0.0058918921   0.85934022    -0.082159139  
     57000   1.0131226      0.0055789325   0.94156306    -0.064023914  
     58000   0.94039042     0.0059825045   0.87334279    -0.06005299   
     59000   1.0124846      0.0063412907   0.93972702    -0.065226706  
     60000   0.96803674     0.0044921062   0.89169764    -0.069138823  
     61000   0.96465476     0.006248223    0.89359441    -0.063885233  
     62000   0.97616017     0.0062144526   0.91123574    -0.057663729  
     63000   0.96344506     0.0058319337   0.87955809    -0.076720849  
     64000   1.0297763      0.0074276668   0.95420706    -0.06790975   
     65000   1.0173266      0.0067043114   0.96471568    -0.045044075  
     66000   0.98339726     0.0064635023   0.90762582    -0.068456915  
     67000   1.0355705      0.0061788113   0.95825161    -0.06961632   
     68000   0.94524273     0.0056565658   0.86610908    -0.072102926  
     69000   0.96841989     0.0062647546   0.87525091    -0.085965858  
     70000   1.0086204      0.0068400743   0.90511789    -0.096000371  
     71000   0.9753904      0.0063417648   0.87287956    -0.095255873  
     72000   1.0315852      0.0058675404   0.94513912    -0.07877317   
     73000   1.0333236      0.0064160612   0.93741296    -0.088224785  
     74000   0.99138518     0.0066167226   0.89831377    -0.085697473  
     75000   0.94957743     0.0059760279   0.85591497    -0.086599492  
     76000   1.0021532      0.0050055028   0.91940645    -0.075292766  
     77000   0.9524033      0.0064933285   0.8708086     -0.074510706  
     78000   1.0015558      0.0064491928   0.92014401    -0.073962212  
     79000   0.96905596     0.0065866585   0.8901883     -0.071659805  
     80000   1.0382902      0.006242515    0.96674719    -0.063820241  
     81000   0.96623544     0.0055286304   0.89109618    -0.067952394  
     82000   0.97548109     0.0055731115   0.89701703    -0.071208419  
     83000   0.96358951     0.0064477988   0.87201236    -0.084409959  
     84000   1.0515082      0.0060951176   0.9628717     -0.080815341  
     85000   0.94006472     0.0056337627   0.85183951    -0.081232997  
     86000   0.91848448     0.0052330351   0.82682554    -0.084827231  
     87000   0.95205366     0.0062113046   0.86231363    -0.082658631  
     88000   0.99898133     0.0061462082   0.90354241    -0.088008482  
     89000   0.99617825     0.0059673288   0.91127706    -0.077491602  
     90000   0.98230293     0.0070628673   0.88547725    -0.089519297  
     91000   1.0348754      0.0068969012   0.92075166    -0.10642635   
     92000   1.0488088      0.0058334769   0.9327258     -0.10828196   
     93000   0.9861276      0.0055517348   0.88539993    -0.093392836  
     94000   1.0045506      0.0059018491   0.90959957    -0.087479159  
     95000   1.0139153      0.0065014855   0.9285948     -0.077779004  
     96000   0.97478892     0.0056500574   0.8879126     -0.079625827  
     97000   1.0148942      0.0070667478   0.92474486    -0.082600498  
     98000   0.99390633     0.0058498503   0.90283877    -0.083674869  
     99000   1.0111307      0.0061708544   0.9016672     -0.10194268   
    100000   1.0148427      0.0064577353   0.91830095    -0.088993372  
    101000   1.0190025      0.0058101748   0.92683669    -0.084586423  
    102000   1.0577415      0.0066284862   0.96669631    -0.083177716  
    103000   0.97783293     0.0063417724   0.88574446    -0.084815325  
    104000   0.98344296     0.0062384687   0.89067715    -0.085450949  
    105000   1.0150383      0.0058422464   0.9383805     -0.069107945  
    106000   1.015822       0.0054304695   0.93797451    -0.070291765  
    107000   0.92964205     0.0050630584   0.85215286    -0.070574498  
    108000   0.93118044     0.0058780125   0.84610874    -0.078145563  
    109000   0.98680844     0.0068032305   0.91574713    -0.06372141   
    110000   1.0043462      0.0064176867   0.92648477    -0.07039107   
    111000   0.98441557     0.0057270016   0.91472236    -0.062371111  
    112000   0.96439615     0.0047749536   0.89455459    -0.062668366  
    113000   1.0174584      0.006370598    0.95131629    -0.058574285  
    114000   0.99894326     0.0050184394   0.92477003    -0.066743069  
    115000   1.0370078      0.0058909573   0.97287263    -0.056421918  
    116000   1.0202288      0.006764484    0.95090258    -0.061737766  
    117000   1.0307397      0.0059743702   0.95506507    -0.068007949  
    118000   0.97749342     0.0070194473   0.90941548    -0.060807324  
    119000   0.99562016     0.0062545368   0.93445203    -0.053762694  
    120000   1.021282       0.0056191323   0.95183365    -0.061852056  
    121000   1.0037852      0.0065364745   0.93093546    -0.065383606  
    122000   1.0764723      0.0071947841   1.0037709     -0.064694549  
    123000   1.0294345      0.0058954006   0.95977811    -0.061999441  
    124000   0.98423097     0.005411986    0.92744844    -0.0494618    
    125000   0.94986737     0.005399841    0.87818536    -0.064616879  
    126000   1.0363575      0.0070477095   0.97656889    -0.052080177  
    127000   0.99671718     0.0049006646   0.93273162    -0.056571953  
    128000   0.97882111     0.0055531361   0.93696929    -0.034571324  
    129000   0.97617192     0.0066267165   0.9169816     -0.051929535  
    130000   1.0078684      0.0054480406   0.93961967    -0.060752149  
    131000   1.0887857      0.0067597876   1.0256435     -0.055043722  
    132000   0.98030181     0.0066690437   0.92783065    -0.045179651  
    133000   0.99213198     0.006094672    0.92449208    -0.060260408  
    134000   1.0139666      0.006289702    0.95371168    -0.052712983  
    135000   1.0983904      0.0072250977   1.0354639     -0.054756596  
    136000   0.98825213     0.0067951589   0.92988068    -0.051020816  
    137000   1.0148743      0.0065797338   0.95848863    -0.048837054  
    138000   0.98262909     0.0068005366   0.93268161    -0.042638677  
    139000   0.99617487     0.0060958801   0.94483805    -0.04392725   
    140000   1.0288964      0.0054510945   0.97189983    -0.049343604  
    141000   0.98713389     0.0052930303   0.91985134    -0.059940228  
    142000   1.0163671      0.0063972468   0.95258533    -0.056222008  
    143000   1.0519342      0.0064875011   0.99536252    -0.048747416  
    144000   1.0173455      0.0050977465   0.95478103    -0.054997474  
    145000   0.9786089      0.0048525601   0.90446927    -0.066860721  
    146000   0.93364857     0.0058515741   0.85846563    -0.068238447  
    147000   0.97965953     0.006341263    0.90769526    -0.064677551  
    148000   0.94984089     0.0067531209   0.86467647    -0.078099496  
    149000   0.99833146     0.0058544671   0.89757397    -0.093331886  
    150000   0.9417333      0.0067224459   0.85854356    -0.07618511   
    151000   1.0331892      0.0059648207   0.94438164    -0.081122722  
    152000   1.0693185      0.0070299998   0.9873055     -0.0740594    
    153000   0.96264483     0.0058738655   0.8755972     -0.079887461  
    154000   1.0044648      0.0066965244   0.9384272     -0.058566418  
    155000   0.93366636     0.0052822636   0.85085854    -0.075863188  
    156000   1.0170155      0.0058883237   0.9470621     -0.062388776  
    157000   1.0189091      0.0057168169   0.94379247    -0.067537972  
    158000   1.0477123      0.0068591035   0.9604033     -0.079516122  
    159000   0.92193495     0.0058757959   0.84186364    -0.073213941  
    160000   1.0269482      0.0064902751   0.94769682    -0.07161294   
    161000   1.002584       0.0060607059   0.91746856    -0.077658186  
    162000   0.94977583     0.0058589215   0.86253482    -0.080176568  
    163000   0.94226681     0.0061637131   0.84727247    -0.087985738  
    164000   1.0079962      0.0058039307   0.92240874    -0.07808993   
    165000   0.95670418     0.0047821927   0.86217493    -0.087413267  
    166000   0.98276179     0.0061990594   0.88705441    -0.088397578  
    167000   0.98928672     0.0062919037   0.90286592    -0.079062471  
    168000   1.0737678      0.0069671851   1.0000661     -0.065714974  
    169000   0.96258416     0.0061555477   0.88316611    -0.072258326  
    170000   0.96672077     0.0057561066   0.89269788    -0.066832409  
    171000   0.96733632     0.0065926141   0.88717845    -0.072962809  
    172000   1.0438685      0.0060427801   0.97422045    -0.061883712  
    173000   0.99618869     0.0065717783   0.9196358     -0.069143223  
    174000   1.0255356      0.0068525475   0.95134215    -0.066565451  
    175000   0.92453414     0.0051201388   0.86905968    -0.048597761  
    176000   0.99250647     0.0059361334   0.938569      -0.046555185  
    177000   1.0440845      0.0057549379   0.98446536    -0.051853231  
    178000   0.97287253     0.006080059    0.9082337     -0.057402593  
    179000   1.0225755      0.0061082889   0.97029149    -0.044678112  
    180000   0.99786521     0.0059685271   0.93996529    -0.050477782  
    181000   1.03882        0.0060286561   0.97429189    -0.056801318  
    182000   1.0831165      0.00620784     1.0176385     -0.057421756  
    183000   1.0161932      0.006492585    0.95545014    -0.053184557  
    184000   1.0323507      0.0052082188   0.97117814    -0.053493947  
    185000   1.0452175      0.0068613199   0.98849597    -0.048947182  
    186000   0.98405883     0.0070463604   0.92491148    -0.051827906  
    187000   1.0149979      0.0058145577   0.95573838    -0.051709991  
    188000   1.047189       0.0057123262   0.98599585    -0.053404121  
    189000   1.0158386      0.0065486886   0.95362184    -0.054660895  
    190000   1.0231261      0.0065082316   0.95977641    -0.055739691  
    191000   1.0096927      0.0050186828   0.94838039    -0.053802224  
    192000   1.0401082      0.0062414384   0.98440583    -0.047965997  
    193000   1.0178342      0.0067859237   0.958748      -0.051515487  
    194000   0.99029399     0.0048862235   0.92881982    -0.05410834   
    195000   0.99948855     0.0050009102   0.94694513    -0.045109202  
    196000   1.0165847      0.0055750321   0.94888229    -0.060141017  
    197000   1.0509193      0.0057882681   0.97591713    -0.067185416  
    198000   1.0596098      0.0059947981   0.96821642    -0.083511932  
    199000   1.0386391      0.0065208492   0.96185743    -0.069056261  
    200000   0.96025955     0.0057275955   0.87536666    -0.077750463  
    201000   1.0097082      0.0060383857   0.91815395    -0.084043978  
    202000   1.0014532      0.0060181937   0.88499536    -0.10900906   
    203000   1.0207946      0.006954703    0.91506678    -0.098135128  
    204000   1.0122353      0.0060493691   0.93000056    -0.074705766  
    205000   1.0387349      0.0068775457   0.93379917    -0.097209613  
    206000   0.91212774     0.0052780194   0.82402507    -0.081318244  
    207000   0.99418999     0.006151172    0.90187255    -0.08492264   
    208000   1.0115738      0.0066473991   0.93638746    -0.067662238  
    209000   1.0477524      0.0062128418   0.96890706    -0.071052152  
    210000   1.0105815      0.0064667925   0.92151286    -0.081551912  
    211000   0.99078325     0.0056169044   0.88347246    -0.099941331  
    212000   1.0150484      0.0055349336   0.92830558    -0.079192849  
    213000   1.0147969      0.0053065235   0.91479939    -0.09244939   
    214000   1.0193005      0.0061560961   0.91324703    -0.098471925  
    215000   1.0248002      0.006802889    0.91295613    -0.10422162   
    216000   1.0514345      0.0066372906   0.94202774    -0.1015862    
    217000   0.9829542      0.0064504888   0.87231481    -0.10332817   
    218000   1.0235704      0.0070399968   0.91698734    -0.098969764  
    219000   1.074568       0.0076715089   0.9516783     -0.11489707   
    220000   0.9179818      0.005342659    0.82321855    -0.087935288  
    221000   1.0318978      0.0072740272   0.93439089    -0.089831661  
    222000   1.0177453      0.0058305636   0.90535234    -0.10482292   
    223000   0.99710606     0.0061918164   0.89596626    -0.093723312  
    224000   0.98550907     0.005844745    0.88301853    -0.095160313  
    225000   1.0214518      0.0070109683   0.90761146    -0.10624275   
    226000   1.0389745      0.0066049154   0.93605446    -0.095192154  
    227000   0.94408714     0.0054398455   0.82406259    -0.11300241   
    228000   1.0167686      0.0062411862   0.90833994    -0.10086593   
    229000   0.97151258     0.0046102408   0.85777273    -0.10651372   
    230000   1.0372471      0.0064700039   0.91253006    -0.11700199   
    231000   0.99682733     0.0061123211   0.89625072    -0.093162187  
    232000   1.0072665      0.0051598021   0.89605319    -0.10372127   
    233000   1.0564916      0.0061693366   0.9420364     -0.10659699   
    234000   1.0169241      0.0070258398   0.90858633    -0.10077389   
    235000   1.0556069      0.0062011746   0.9571261     -0.090629228  
    236000   1.0399457      0.0065252997   0.93915725    -0.093053361  
    237000   0.98895825     0.0058000118   0.88056644    -0.10103593   
    238000   1.0008565      0.0071872076   0.89654035    -0.096871772  
    239000   0.99314305     0.0061384885   0.89987851    -0.085877529  
    240000   0.95961956     0.0055884736   0.86408155    -0.08840035   
    241000   0.99925173     0.0062246433   0.89473553    -0.097083741  
    242000   0.93774031     0.0057193063   0.83358874    -0.097176642  
    243000   1.0269497      0.0056781051   0.93004996    -0.089261288  
    244000   0.98754903     0.0047187455   0.87493686    -0.10526676   
    245000   0.96138567     0.0057862063   0.87602367    -0.078211196  
    246000   1.0216049      0.0055571428   0.91798794    -0.096018207  
    247000   0.98788759     0.0055699624   0.90158625    -0.078953415  
    248000   0.96315861     0.0058422549   0.86437125    -0.091623373  
    249000   0.94744498     0.0067603195   0.86630924    -0.074088626  
    250000   1.048555       0.0064091787   0.96344769    -0.077308123  
    251000   0.99115522     0.0054517267   0.88406717    -0.099715825  
    252000   0.95252116     0.0062138301   0.84825539    -0.097180897  
    253000   1.0143053      0.0055466037   0.92014883    -0.086612081  
    254000   1.0242501      0.0060664376   0.92134323    -0.095288522  
    255000   1.0688389      0.0055957921   0.97398834    -0.086900524  
    256000   1.0088908      0.0060945748   0.90567906    -0.095707617  
    257000   0.95807386     0.0054625833   0.86794907    -0.082998623  
    258000   1.0287998      0.0064170525   0.94574463    -0.075402935  
    259000   1.0378622      0.0063393288   0.94786884    -0.082273675  
    260000   0.92950828     0.0057152238   0.84797315    -0.074621434  
    261000   1.0269581      0.0060258647   0.95930215    -0.060017464  
    262000   0.96246709     0.0051804299   0.87413274    -0.081175504  
    263000   1.0332046      0.0062877341   0.96083716    -0.064682455  
    264000   0.92552627     0.0057634245   0.85477052    -0.063871671  
    265000   0.9780863      0.0064167927   0.90908418    -0.0617271    
    266000   1.0002118      0.0054424641   0.92887593    -0.063896307  
    267000   1.0039328      0.0061117688   0.94013148    -0.056334094  
    268000   1.0210889      0.005449796    0.9439275     -0.069566514  
    269000   1.0339318      0.0060008796   0.94717006    -0.079071359  
    270000   1.0550749      0.0059019013   0.96026678    -0.086960472  
    271000   1.0308887      0.0065353212   0.94426077    -0.078960153  
    272000   1.0051963      0.0055172486   0.92636959    -0.071350056  
    273000   1.0072297      0.0071017467   0.9421076     -0.05763028   
    274000   1.0125455      0.0061521612   0.91744777    -0.087566416  
    275000   0.94158451     0.0062965707   0.85962293    -0.074958054  
    276000   1.0118322      0.0063639315   0.92969327    -0.074612948  
    277000   1.0460345      0.0068056523   0.96512576    -0.073128346  
    278000   0.95045357     0.0060242993   0.87150934    -0.071874743  
    279000   0.96523272     0.0061043055   0.89359029    -0.064463015  
    280000   1.1030679      0.0056228487   1.0173028     -0.077560499  
    281000   1.042167       0.0071043192   0.93981439    -0.09460095   
    282000   1.0586581      0.0065350919   0.9631716     -0.087612189  
    283000   0.98179482     0.0065115046   0.89793184    -0.076560376  
    284000   0.94709859     0.0058126563   0.84505227    -0.095001784  
    285000   0.9868494      0.0063419668   0.89392058    -0.085588618  
    286000   0.93035571     0.0055401743   0.83171772    -0.091717988  
    287000   1.0093463      0.0060054587   0.91733549    -0.084503293  
    288000   0.94636237     0.0055666461   0.84547799    -0.093845318  
    289000   1.0298088      0.0057027496   0.93836805    -0.083781007  
    290000   1.0294768      0.0069876537   0.9313645     -0.090455047  
    291000   1.0247812      0.0063301468   0.928387      -0.088771881  
    292000   1.0679236      0.0064016196   0.96519347    -0.094786883  
    293000   0.96872461     0.0061201289   0.87631599    -0.085203237  
    294000   1.0049052      0.0074157434   0.91800255    -0.079428164  
    295000   0.98088785     0.0052237465   0.8913736     -0.082218397  
    296000   0.96193436     0.0056902136   0.88872058    -0.066058894  
    297000   0.94887069     0.0057931889   0.87345278    -0.068360196  
    298000   1.0776346      0.0061302114   0.98991445    -0.079704654  
    299000   1.0484429      0.0061411821   0.96093738    -0.07970721   
    300000   0.96765969     0.0056981621   0.89018001    -0.070282214  
    301000   1.0244628      0.0061385785   0.93821949    -0.078623304  
    302000   1.017983       0.0061879648   0.928694      -0.081717234  
    303000   0.92354556     0.0054924439   0.83203885    -0.084637363  
    304000   0.958873       0.0063329836   0.88035065    -0.071390238  
    305000   0.95435974     0.0045839782   0.87624194    -0.071019251  
    306000   0.91157326     0.0058655102   0.84141842    -0.063374541  
    307000   0.95879586     0.0059424141   0.88469049    -0.066973828  
    308000   0.97428681     0.0069314101   0.90069473    -0.066345319  
    309000   0.97513909     0.0058909019   0.90079647    -0.06708952   
    310000   0.96584979     0.0066834489   0.91140441    -0.047261374  
    311000   0.96717702     0.0057974717   0.90246218    -0.057520958  
    312000   0.98061918     0.0064309872   0.88861879    -0.084706531  
    313000   0.95659737     0.0052312627   0.8712258     -0.078256387  
    314000   1.1086616      0.0072012706   1.0336477     -0.066767611  
    315000   1.0503059      0.0063934997   0.97312685    -0.069366823  
    316000   1.0320718      0.0069671871   0.95792115    -0.06647412   
    317000   1.0068647      0.0072374023   0.93818662    -0.061189021  
    318000   0.99900074     0.0057345899   0.92093619    -0.070633962  
    319000   0.96179925     0.0055099707   0.90012619    -0.054519183  
    320000   0.97416418     0.0059011156   0.90164791    -0.065270421  
    321000   1.0694637      0.0058496212   0.99495514    -0.066553903  
    322000   0.98736578     0.0052543543   0.91088089    -0.069140852  
    323000   0.99657128     0.0063811631   0.92763205    -0.061526714  
    324000   1.0143437      0.0066954728   0.94285094    -0.06394803   
    325000   0.95508922     0.005751836    0.88313355    -0.064851697  
    326000   1.0390745      0.0065166647   0.96644641    -0.064899453  
    327000   0.95486652     0.0059377648   0.87406423    -0.073699982  
    328000   0.99159093     0.0066502098   0.91388526    -0.070330207  
    329000   1.0392565      0.0063620365   0.96421742    -0.067309095  
    330000   1.0232767      0.0061079821   0.94650542    -0.069160174  
    331000   1.0129984      0.0069417009   0.94400275    -0.061460997  
    332000   0.99993593     0.0058635599   0.93694112    -0.055557278  
    333000   1.0792909      0.007256734    1.0068999     -0.064363239  
    334000   1.0525073      0.0061708716   0.97445114    -0.070227606  
    335000   0.98579669     0.0060274688   0.9137899     -0.064674422  
    336000   0.95052741     0.0050875503   0.87390365    -0.069553721  
    337000   0.94843816     0.0046722385   0.87224986    -0.069133803  
    338000   1.0091993      0.0062423312   0.9295497     -0.072143178  
    339000   1.0295703      0.0067030956   0.95514864    -0.066763732  
    340000   1.0322039      0.0058673742   0.9672639     -0.057262478  
    341000   1.0638054      0.0059168431   0.97845393    -0.077438875  
    342000   0.97676927     0.0059843635   0.89679528    -0.072708761  
    343000   0.96214081     0.0061662781   0.8897521     -0.065232293  
    344000   1.0132695      0.0059958605   0.93656372    -0.069169089  
    345000   1.0126855      0.0060005163   0.94263419    -0.062518937  
    346000   1.0915143      0.0069914152   1.0308381     -0.052557497  
    347000   0.95992253     0.0064001551   0.88236001    -0.070422597  
    348000   1.0223046      0.005861624    0.94674468    -0.067955988  
    349000   0.98655395     0.0051848036   0.92598459    -0.053231357  
    350000   1.0299892      0.0066253628   0.96373963    -0.058588488  
    351000   0.99164972     0.0063151176   0.92078518    -0.063488629  
    352000   0.9613391      0.0067439836   0.88912326    -0.065065384  
    353000   0.98244162     0.0050797893   0.90388338    -0.071250829  
    354000   1.089597       0.0072698411   1.011584      -0.069908557  
    355000   1.0303972      0.0066619008   0.94756726    -0.075165863  
    356000   1.0338421      0.0066111505   0.95031356    -0.075838834  
    357000   0.97784923     0.0055790621   0.90596262    -0.06461335   
    358000   0.97940583     0.0057742499   0.90094646    -0.071174535  
    359000   0.98067037     0.0065724173   0.8998229     -0.073553234  
    360000   0.98476288     0.0066564321   0.91455868    -0.062879517  
    361000   0.97436288     0.0053177257   0.90683486    -0.060280694  
    362000   0.94752809     0.0058170821   0.88358492    -0.056895438  
    363000   0.96836015     0.0053540281   0.92195918    -0.039198296  
    364000   0.96045885     0.0043324799   0.90285005    -0.050464898  
    365000   1.0693025      0.005830791    1.0191336     -0.042215407  
    366000   0.99361224     0.0059905683   0.92969409    -0.05652765   
    367000   1.0107122      0.0066145295   0.94727003    -0.05592447   
    368000   0.95913672     0.0052064344   0.89701795    -0.054984698  
    369000   1.0454884      0.0069500878   0.96646465    -0.071247351  
    370000   1.0528848      0.0062560514   0.97199472    -0.07305867   
    371000   1.0387168      0.0057844566   0.9632672     -0.067723558  
    372000   0.97814958     0.0063912371   0.89736663    -0.073507457  
    373000   0.98560917     0.0062092098   0.90878404    -0.069494156  
    374000   0.91337908     0.0051607924   0.82534979    -0.081235565  
    375000   1.0195872      0.0056575768   0.91996015    -0.092043304  
    376000   0.98449781     0.007252298    0.87412068    -0.10305442   
    377000   0.96166851     0.0057684493   0.86887852    -0.085637083  
    378000   1.0331584      0.0062962376   0.93275563    -0.092718078  
    379000   0.9899385      0.0060513394   0.8798504     -0.10272492   
    380000   1.0727107      0.0065410794   0.96370646    -0.10102535   
    381000   0.98916875     0.0056651201   0.89369375    -0.088117545  
    382000   1.0399284      0.0061660108   0.96235304    -0.069840323  
    383000   0.9714257      0.0065764099   0.88782291    -0.076377308  
    384000   1.0034512      0.0062667721   0.92078817    -0.075199306  
    385000   1.0681229      0.0062833934   0.97369999    -0.086478209  
    386000   0.99284775     0.0055555279   0.89266259    -0.092800346  
    387000   0.95086974     0.0061154077   0.86292268    -0.080874475  
    388000   1.0068522      0.006147518    0.9242642     -0.075098986  
    389000   1.0850721      0.0060914187   0.99664881    -0.080352516  
    390000   0.94475399     0.0056832289   0.85546375    -0.082263143  
    391000   0.98272903     0.0053532854   0.86726473    -0.10815474   
    392000   0.98651829     0.00521727     0.86896802    -0.11021253   
    393000   1.0512877      0.0069107419   0.94881067    -0.094657493  
    394000   0.9265983      0.0056882265   0.83426749    -0.085438755  
    395000   1.0011187      0.0058627476   0.91304536    -0.08062697   
    396000   1.0451125      0.0061357006   0.95194907    -0.085389867  
    397000   0.95188014     0.0053433276   0.84416083    -0.10063921   
    398000   1.0017859      0.0069269268   0.91274315    -0.081591406  
    399000   1.0102239      0.0068071397   0.91480536    -0.087904431  
    400000   1.0148803      0.0061290241   0.91189856    -0.095432996  
    401000   1.0826954      0.0066776983   0.98348649    -0.091155756  
    402000   1.011658       0.0059038817   0.91930871    -0.084824529  
    403000   0.98891415     0.0053290417   0.8847996     -0.096758988  
    404000   0.9072953      0.0061257401   0.80041122    -0.10013561   
    405000   0.98971859     0.005469817    0.88731336    -0.095043691  
    406000   0.94158933     0.0052433621   0.83635926    -0.098226507  
    407000   1.0032696      0.0050635656   0.89681285    -0.098994415  
    408000   0.97085213     0.0052979487   0.87455259    -0.089078322  
    409000   1.0943964      0.0076787434   0.98572744    -0.10052878   
    410000   1.002117       0.0064329784   0.89440032    -0.10026289   
    411000   1.0326114      0.0062933903   0.91629043    -0.10864042   
    412000   1.0256569      0.0056328814   0.91055796    -0.10747006   
    413000   0.97242715     0.0064075134   0.86933448    -0.095859737  
    414000   1.0267872      0.0059772551   0.92964787    -0.089502079  
    415000   0.99136617     0.0065447895   0.89443696    -0.089555412  
    416000   0.93656706     0.0051752755   0.82920612    -0.10039475   
    417000   1.0221025      0.0051632284   0.91879118    -0.095708889  
    418000   1.0146281      0.0064938358   0.90764768    -0.099433594  
    419000   0.99784421     0.0063211741   0.90426885    -0.086153377  
    420000   0.99826147     0.0065822918   0.89178223    -0.099054153  
    421000   1.0130021      0.0058943052   0.92016669    -0.085300643  
    422000   1.0599688      0.0057173031   0.94867845    -0.10340634   
    423000   1.0588772      0.0063517768   0.9356349     -0.11536638   
    424000   1.0246568      0.0058670365   0.90223325    -0.11480209   
    425000   0.98378347     0.0057325506   0.87302762    -0.10343845   
    426000   0.97706031     0.005747684    0.86179991    -0.10799302   
    427000   1.0091762      0.006060058    0.89379421    -0.10787568   
    428000   0.98857818     0.0056348027   0.86634556    -0.11487956   
    429000   0.97270469     0.0058659502   0.85641493    -0.10905476   
    430000   0.95795468     0.0054521705   0.86140974    -0.089419662  
    431000   0.95794621     0.0054630472   0.84448474    -0.10633626   
    432000   1.0588764      0.0063019392   0.93960253    -0.11139793   
    433000   1.0558335      0.0064014371   0.9372591     -0.11072113   
    434000   1.0361037      0.0058370631   0.92884036    -0.099556786  
    435000   0.98546052     0.0059341137   0.89085685    -0.087273799  
    436000   1.0025963      0.0055992074   0.90258795    -0.092551002  
    437000   0.92964324     0.0049889514   0.84005462    -0.082673924  
    438000   0.95244136     0.005478729    0.83793942    -0.10741767   
    439000   0.99829421     0.0058563269   0.8926632     -0.098205677  
    440000   0.94104603     0.0055159091   0.85131758    -0.082728932  
    441000   0.97375175     0.0058392733   0.87422478    -0.092284183  
    442000   1.0611369      0.0062565239   0.98237729    -0.070866834  
    443000   1.0294238      0.0065453863   0.94530091    -0.076466003  
    444000   0.98429902     0.0049573354   0.90741658    -0.069561209  
    445000   1.0993289      0.0071835397   1.0137523     -0.077399782  
    446000   0.93408564     0.0061257837   0.85870149    -0.068436406  
    447000   0.9728689      0.0060567524   0.88569523    -0.079937452  
    448000   1.0091292      0.0058828403   0.92617559    -0.075447721  
    449000   1.0469971      0.0063689043   0.97330112    -0.065908347  
    450000   0.97606755     0.0057915937   0.91598339    -0.052824153  
    451000   0.99254805     0.005543372    0.92483452    -0.060330945  
    452000   0.96174482     0.0054741075   0.89305171    -0.061539638  
    453000   0.97648873     0.0055104799   0.90514789    -0.0640777    
    454000   0.98153563     0.0059096309   0.90121038    -0.073024568  
    455000   0.98429542     0.0063105426   0.91221297    -0.064761241  
    456000   0.99822479     0.0069195886   0.93714456    -0.053655418  
    457000   1.02497        0.0058173296   0.97707243    -0.040273868  
    458000   0.95520226     0.0057570753   0.89268284    -0.055414607  
    459000   0.9875415      0.0049768373   0.92569152    -0.054504626  
    460000   1.0445459      0.0062481457   0.98454273    -0.052233814  
    461000   1.1211561      0.0066556264   1.0627895     -0.050027486  
    462000   1.0944342      0.0067590326   1.0277937     -0.05850012   
    463000   1.0270861      0.006001036    0.94774361    -0.07170303   
    464000   1.0234827      0.0051129069   0.94524774    -0.070622324  
    465000   1.0629414      0.006217743    0.99645674    -0.058578524  
    466000   0.94206799     0.0046368599   0.87824034    -0.056820529  
    467000   0.92250481     0.0047808063   0.84951014    -0.066133071  
    468000   1.0142713      0.0059771355   0.934476      -0.072251145  
    469000   1.0054912      0.0067077311   0.93085899    -0.067153331  
    470000   0.98212832     0.0062349546   0.89616116    -0.078662077  
    471000   1.0281228      0.0057623386   0.94988284    -0.070592775  
    472000   1.012556       0.0048193685   0.93434882    -0.070675798  
    473000   0.99700876     0.0062163369   0.92564623    -0.063946763  
    474000   1.066165       0.0067218617   1.0102456     -0.047989261  
    475000   1.0471533      0.0063747581   0.97209523    -0.067269343  
    476000   1.0386737      0.006775483    0.96943858    -0.061509462  
    477000   1.024129       0.0052750849   0.94626139    -0.070250087  
    478000   1.0156506      0.0059236112   0.94737277    -0.060723432  
    479000   0.92675489     0.0055584702   0.87214936    -0.047712313  
    480000   1.0140904      0.007016079    0.95948064    -0.047066988  
    481000   0.97251593     0.0068918229   0.90418464    -0.061097703  
    482000   1.0141374      0.006130271    0.95423078    -0.052363475  
    483000   1.0050754      0.0062002932   0.94678096    -0.050818632  
    484000   0.91590062     0.0050072436   0.86627885    -0.042809287  
    485000   1.0225848      0.005964052    0.96527161    -0.049707234  
    486000   0.97283926     0.0054496261   0.922649      -0.042954261  
    487000   0.89178088     0.005552476    0.83256688    -0.05258092   
    488000   0.98141694     0.0062129006   0.92894847    -0.045168674  
    489000   0.99181341     0.0054885675   0.9375559     -0.046880392  
    490000   0.95293645     0.0057002549   0.88042888    -0.065419619  
    491000   1.0141717      0.0063023503   0.94032593    -0.06630232   
    492000   0.95313766     0.0052005219   0.87685277    -0.069195437  
    493000   1.0294405      0.0064737947   0.93772576    -0.084057746  
    494000   0.97751631     0.0067965953   0.90622579    -0.064019738  
    495000   0.99526071     0.0046656843   0.92552321    -0.06233473   
    496000   1.0218292      0.0068098338   0.92553326    -0.088695556  
    497000   0.93916226     0.0059590933   0.86202508    -0.07015167   
    498000   1.0286874      0.0067141932   0.95314113    -0.067894886  
    499000   0.97632819     0.0060861381   0.9004394     -0.068626846  
    500000   1.0294017      0.006582496    0.95296644    -0.068778571  
    501000   1.0573948      0.0061714733   0.98725183    -0.062278051  
    502000   1.0134068      0.0056935533   0.95727048    -0.04859858   
    503000   0.98405002     0.005899693    0.91378476    -0.062945874  
    504000   0.93695292     0.0061113314   0.85877301    -0.071210837  
    505000   1.0027818      0.0071355441   0.92606761    -0.069255496  
    506000   0.94120515     0.0053857279   0.85379554    -0.080408913  
    507000   1.0003038      0.0064297357   0.92440432    -0.068459211  
    508000   0.96311649     0.0053359846   0.88406255    -0.071890271  
    509000   0.97574772     0.0060549367   0.89667821    -0.07181188   
    510000   0.98308037     0.0061425024   0.89938032    -0.076387887  
    511000   0.98880852     0.006398101    0.91941198    -0.062041769  
    512000   0.98402968     0.0064487478   0.90205406    -0.074656388  
    513000   0.96120365     0.0057701868   0.8852171     -0.068837105  
    514000   1.0116331      0.0060096132   0.93176029    -0.07234827   
    515000   1.1228757      0.0069030473   1.0293584     -0.085165324  
    516000   1.0397711      0.0061143194   0.95546959    -0.076567698  
    517000   1.0331215      0.0066396318   0.95689064    -0.068546452  
    518000   0.95908056     0.0062877473   0.88034869    -0.071598217  
    519000   1.0339683      0.0054635057   0.95703936    -0.069238303  
    520000   0.99697917     0.0060471957   0.9084288     -0.081134819  
    521000   0.95063315     0.0061458937   0.8697433     -0.073819021  
    522000   1.0226054      0.0055005944   0.94039775    -0.074601479  
    523000   0.98819649     0.0055721333   0.90766941    -0.073176855  
    524000   0.991084       0.0061034541   0.91673537    -0.06697693   
    525000   0.96505877     0.0060282982   0.890095      -0.06778565   
    526000   0.98442884     0.0057796039   0.91794572    -0.05916092   
    527000   0.98177391     0.0059044761   0.895846      -0.078625457  
    528000   0.95488218     0.0059383872   0.87011641    -0.077663345  
    529000   0.96414779     0.0061599167   0.87344378    -0.083532666  
    530000   1.0058889      0.0056873064   0.92672195    -0.07168513   
    531000   1.0546596      0.0060994312   0.96942397    -0.077391048  
    532000   1.0092215      0.0059629014   0.9301056     -0.071609298  
    533000   0.97009083     0.0059488961   0.88493554    -0.077939736  
    534000   0.9384877      0.005213146    0.89027396    -0.041233253  
    535000   0.98001287     0.0064730148   0.91700607    -0.055717455  
    536000   0.92167706     0.0054242555   0.86414772    -0.050673888  
    537000   1.0312571      0.0056679961   0.97208343    -0.051503158  
    538000   1.0626963      0.0078479587   1.0078519     -0.046940064  
    539000   0.99437875     0.0059688281   0.95136079    -0.035621751  
    540000   0.9754007      0.00562787     0.91663544    -0.051510213  
    541000   0.9982521      0.0059501983   0.93932348    -0.051503604  
    542000   0.95159951     0.0064516342   0.89037387    -0.05414763   
    543000   1.0604514      0.0070160321   0.99579931    -0.056764397  
    544000   1.0084929      0.0055526314   0.95184172    -0.049149962  
    545000   1.023067       0.0067389514   0.9704392     -0.045018193  
    546000   0.9663893      0.0063582175   0.90147597    -0.057725309  
    547000   1.1060246      0.0065072727   1.0354334     -0.062364616  
    548000   1.0834166      0.0064490472   1.0119879     -0.063370228  
    549000   0.93566394     0.0063793645   0.87006347    -0.058640981  
    550000   1.0304777      0.0066901639   0.95821965    -0.064593302  
    551000   1.0211277      0.0069012957   0.95399968    -0.05953285   
    552000   1.0037505      0.0062396826   0.9361206     -0.060164019  
    553000   0.96080082     0.0057707328   0.89483758    -0.058816785  
    554000   0.99840253     0.0047618325   0.94306753    -0.047908868  
    555000   1.0616932      0.0066003455   1.0079678     -0.045828543  
    556000   0.99642597     0.0060543017   0.91553218    -0.073482349  
    557000   1.0145984      0.0053667717   0.93691519    -0.070136593  
    558000   0.9716033      0.00570453     0.8955345     -0.068841999  
    559000   0.98313134     0.0051476982   0.90654789    -0.069270908  
    560000   1.020366       0.0052841527   0.93848976    -0.074286774  
    561000   0.9363378      0.0056839564   0.87646943    -0.05290387   
    562000   0.94985223     0.0053759861   0.8819441     -0.060843117  
    563000   1.0121934      0.0060308592   0.94548651    -0.059178222  
    564000   0.97879702     0.0057396329   0.8994895     -0.072027213  
    565000   1.060727       0.0063278075   0.98452882    -0.068308456  
    566000   0.99493479     0.0056569972   0.92128001    -0.066254441  
    567000   1.0586919      0.0061667883   0.99721624    -0.053601066  
    568000   1.0438984      0.0064042307   0.96977324    -0.066360636  
    569000   0.98122472     0.0058665848   0.9313465     -0.042579851  
    570000   0.94531003     0.0057619224   0.8961618     -0.042117001  
    571000   0.94129436     0.0055663324   0.89112482    -0.043168173  
    572000   1.015285       0.0063214922   0.96115673    -0.046576587  
    573000   1.0138136      0.0060615528   0.94979804    -0.056474798  
    574000   1.0626825      0.0070579743   1.000273      -0.054505284  
    575000   0.97560259     0.0055725457   0.90929978    -0.059046265  
    576000   1.0473327      0.0072761807   0.98623666    -0.053305937  
    577000   0.93561877     0.006098996    0.86929636    -0.059363266  
    578000   1.0268839      0.0064228298   0.94873284    -0.070513044  
    579000   1.0081387      0.005874929    0.94017123    -0.060468916  
    580000   1.0344078      0.0068137256   0.96345046    -0.063263389  
    581000   0.96528981     0.0056351835   0.90130322    -0.056806748  
    582000   1.0266207      0.0068857267   0.94743703    -0.071547655  
    583000   0.98270283     0.0062705357   0.90254159    -0.072851882  
    584000   0.93371813     0.0054769847   0.86145332    -0.0653198    
    585000   1.069981       0.0064804802   1.000573      -0.061449399  
    586000   1.0196756      0.0064379412   0.94468915    -0.067402044  
    587000   0.94508558     0.0049578599   0.88306603    -0.054989989  
    588000   0.93061492     0.0063308783   0.86824945    -0.055443546  
    589000   0.96299199     0.0055035597   0.89470813    -0.061121109  
    590000   1.0580822      0.00624937     0.99260562    -0.057606529  
    591000   1.0349175      0.0061068508   0.97365755    -0.053562208  
    592000   0.99602839     0.0061520485   0.93822284    -0.050397074  
    593000   0.97743139     0.0057295845   0.90959167    -0.060569572  
    594000   0.99493116     0.0067738961   0.91272104    -0.074809809  
    595000   1.0292511      0.006357989    0.95637911    -0.065216376  
    596000   1.0690861      0.0057251036   1.0083679     -0.052766252  
    597000   0.99296219     0.0061816863   0.92254533    -0.063031184  
    598000   0.95388006     0.0050634049   0.86970707    -0.077078021  
    599000   1.0057978      0.0063989086   0.91299495    -0.085321675  
    600000   1.0050412      0.0059062599   0.91493202    -0.08263364   
    601000   1.0059815      0.0068043877   0.91647822    -0.082020727  
    602000   0.99998012     0.0066249139   0.92434475    -0.068197508  
    603000   1.0132876      0.0058851047   0.92386974    -0.081881     
    604000   0.97785307     0.0058045513   0.91126017    -0.059319617  
    605000   0.97118679     0.0056971239   0.89052595    -0.073437139  
    606000   1.0410561      0.0062482783   0.95415567    -0.079157053  
    607000   0.96694127     0.0066601076   0.88653049    -0.073218657  
    608000   1.027191       0.0064849125   0.93086425    -0.088686445  
    609000   0.97602737     0.0062779755   0.87590688    -0.092860787  
    610000   1.0030264      0.0066320962   0.89359211    -0.10197375   
    611000   1.0012866      0.0058658551   0.89805627    -0.095782784  
    612000   0.97385034     0.005695534    0.86635828    -0.10024854   
    613000   1.0236943      0.0055249815   0.90769648    -0.10838361   
    614000   1.0387578      0.0061525745   0.92415548    -0.10687605   
    615000   1.0252125      0.0053902423   0.90897349    -0.10861346   
    616000   0.98868926     0.0052074513   0.87708062    -0.10425476   
    617000   0.99124501     0.0060575296   0.87718414    -0.10668797   
    618000   0.92057214     0.005485908    0.79887841    -0.11484649   
    619000   0.96917216     0.0063637935   0.86200271    -0.099960734  
    620000   0.9900847      0.0062548603   0.88185644    -0.100864     
    621000   1.0137473      0.0058200349   0.91925388    -0.08695318   
    622000   0.97567261     0.0059896162   0.87517429    -0.09324125   
    623000   1.057261       0.0060563466   0.94611762    -0.10327948   
    624000   0.97434848     0.005848076    0.88113391    -0.085967351  
    625000   0.90294199     0.0058127194   0.80494634    -0.091279552  
    626000   1.0111503      0.0062627325   0.91821406    -0.085415271  
    627000   1.0796752      0.0068050161   0.96874393    -0.10290068   
    628000   0.97812438     0.0058831625   0.87471911    -0.096129965  
    629000   0.96173962     0.0058811155   0.86467149    -0.089914691  
    630000   0.97648438     0.0046819609   0.88486333    -0.084357943  
    631000   0.95282439     0.0059684948   0.85586701    -0.089870262  
    632000   0.95890988     0.0053216753   0.85987244    -0.091905056  
    633000   1.0025443      0.0061099159   0.88842215    -0.10666525   
    634000   1.0620275      0.0056448122   0.95946088    -0.094667279  
    635000   1.0109753      0.0055384889   0.91558716    -0.087868526  
    636000   0.94874852     0.0066508706   0.85586555    -0.085826166  
    637000   0.9367639      0.0057889706   0.82287565    -0.10692059   
    638000   1.0047638      0.005559522    0.89913989    -0.098150443  
    639000   1.0209425      0.0069475346   0.93475474    -0.078593949  
    640000   0.92112445     0.0050320054   0.84020616    -0.074066957  
    641000   0.99733369     0.0062472629   0.89214408    -0.097771424  
    642000   0.97813087     0.0056646391   0.9014948     -0.069360719  
    643000   0.99321727     0.006297065    0.90349998    -0.082329717  
    644000   1.0162034      0.0056159346   0.93913269    -0.069512192  
    645000   0.99037498     0.004980578    0.8871824     -0.095826154  
    646000   1.0403853      0.0055515591   0.94606231    -0.086584576  
    647000   0.97754986     0.0061178668   0.87003793    -0.1002409    
    648000   0.97711847     0.0050951632   0.88252272    -0.08732793   
    649000   0.99200097     0.0063976047   0.87570663    -0.10891583   
    650000   0.98130656     0.0070472534   0.86138341    -0.11262417   
    651000   0.99140341     0.0066786817   0.87216933    -0.11186      
    652000   1.0310439      0.006843823    0.91243689    -0.11093804   
    653000   1.0162585      0.0060460904   0.88293691    -0.12576266   
    654000   0.99998013     0.0064405825   0.89831933    -0.094222929  
    655000   0.91693893     0.0060569237   0.80365735    -0.10646138   
    656000   0.94626736     0.0063228598   0.85356065    -0.085668361  
    657000   0.98546684     0.0053430257   0.87724923    -0.10088769   
    658000   1.023633       0.0062729958   0.92839453    -0.087624619  
    659000   1.0137134      0.0074725247   0.90003574    -0.10613769   
    660000   0.99764661     0.0059908793   0.88340888    -0.10681722   
    661000   1.017145       0.0067845399   0.91109962    -0.09847982   
    662000   0.95764055     0.0058736081   0.84771185    -0.10280575   
    663000   1.0271237      0.0064450319   0.96870589    -0.050778094  
    664000   0.99747393     0.0057525697   0.913053      -0.077001703  
    665000   1.0499097      0.0064866572   0.94244742    -0.099653019  
    666000   0.95175675     0.0055139129   0.83588868    -0.10878888   
    667000   1.0717846      0.0070478728   0.97045725    -0.093355447  
    668000   0.93793111     0.005622952    0.82893345    -0.10202131   
    669000   1.0513895      0.0063250548   0.95565435    -0.087914929  
    670000   0.99861932     0.0048178579   0.89244453    -0.098747045  
    671000   0.97395657     0.0062250366   0.88177496    -0.084937297  
    672000   1.0476886      0.0070033855   0.95313971    -0.086756137  
    673000   1.0447044      0.0068215084   0.95827966    -0.078654189  
    674000   0.98835136     0.0059312328   0.88644879    -0.094551199  
    675000   1.0058818      0.005955195    0.90685897    -0.091541111  
    676000   0.95262387     0.0044407624   0.84525792    -0.10028032   
    677000   1.0136223      0.0054977193   0.90903813    -0.097044846  
    678000   1.0293832      0.006441143    0.91782683    -0.10389984   
    679000   0.99614791     0.006163709    0.88149594    -0.10724261   
    680000   1.0221879      0.005510895    0.90608543    -0.10849943   
    681000   0.95461334     0.0056232452   0.85011814    -0.097394774  
    682000   0.90649501     0.0051264996   0.78459107    -0.11516141   
    683000   0.99985374     0.0053125243   0.89047612    -0.10194069   
    684000   1.0440936      0.0061183249   0.9223048     -0.11402279   
    685000   0.97596204     0.0049850963   0.8652166     -0.10348621   
    686000   0.94128873     0.0050218993   0.82497547    -0.10931194   
    687000   0.97759951     0.0057062308   0.85961401    -0.11071409   
    688000   1.0297115      0.0053178756   0.90340689    -0.11864563   
    689000   1.0146957      0.0064935726   0.88784905    -0.11929936   
    690000   1.0050343      0.0064167804   0.87290378    -0.1246551    
    691000   0.98373265     0.0060793836   0.85022148    -0.12619415   
    692000   0.98811541     0.0059487856   0.86821773    -0.11254807   
    693000   1.0205239      0.0058333677   0.88383363    -0.1290996    
    694000   0.98062428     0.0057390736   0.86576719    -0.10756319   
    695000   0.92889231     0.0052069625   0.79105608    -0.13092712   
    696000   1.0787109      0.0060942981   0.95646433    -0.11422306   
    697000   0.95051914     0.0063929463   0.82596585    -0.11748331   
    698000   0.94648338     0.0064209264   0.81755703    -0.12188639   
    699000   1.0144728      0.005536543    0.907999      -0.098928126  
    700000   0.97944056     0.0050324859   0.85225707    -0.1198984    
    701000   1.0337918      0.0071016777   0.91238531    -0.11371714   
    702000   1.0596381      0.0067769203   0.93494924    -0.11680723   
    703000   1.0675545      0.0057220546   0.95147268    -0.10814129   
    704000   1.0095326      0.0058668289   0.89890142    -0.10312225   
    705000   1.01778        0.0057736969   0.89919544    -0.11101429   
    706000   1.0292276      0.0056003488   0.91850092    -0.10307124   
    707000   1.0933905      0.0060771414   0.97552724    -0.10973065   
    708000   0.97685248     0.0060069846   0.86978325    -0.099803381  
    709000   0.9919273      0.0064208383   0.89235262    -0.09219671   
    710000   1.0425161      0.0059552408   0.94465136    -0.090110467  
    711000   1.0972176      0.0065426254   0.99598922    -0.093067274  
    712000   0.99995026     0.0054369011   0.91398578    -0.078526831  
    713000   1.0901982      0.0051942484   0.99434739    -0.087741932  
    714000   1.0318609      0.006107719    0.93549037    -0.088695573  
    715000   0.98282712     0.005238551    0.90516247    -0.070354369  
    716000   1.0150594      0.006788188    0.91446633    -0.09304302   
    717000   1.0217283      0.0065108019   0.91997868    -0.094149968  
    718000   1.0411818      0.0066454992   0.95304371    -0.080393796  
    719000   0.99230833     0.0057098914   0.89583702    -0.089090503  
    720000   1.0095747      0.0054043911   0.90665092    -0.095414549  
    721000   0.94260058     0.0063082182   0.83858846    -0.097001035  
    722000   1.032478       0.0050233472   0.92315812    -0.1016403    
    723000   0.95114677     0.005415876    0.83959116    -0.10448097   
    724000   0.98423309     0.0052738054   0.87492242    -0.10198993   
    725000   0.9540078      0.0058040895   0.84229176    -0.10462012   
    726000   1.0221905      0.0060816713   0.90508028    -0.10950719   
    727000   1.0021098      0.0060621327   0.90897186    -0.085684201  
    728000   0.9491592      0.0059093138   0.86527083    -0.076828506  
    729000   1.0494871      0.0069762974   0.95261587    -0.089065093  
    730000   1.00443        0.0065950759   0.89243942    -0.10451965   
    731000   1.0251829      0.0063221779   0.91387676    -0.10368085   
    732000   1.026321       0.0070162715   0.91507457    -0.10361268   
    733000   0.99458723     0.0059427092   0.89139966    -0.095789822  
    734000   1.0103618      0.0054558839   0.92420603    -0.078640687  
    735000   1.0020747      0.005885661    0.90811808    -0.086503128  
    736000   0.94441805     0.0055238504   0.84521313    -0.092180332  
    737000   0.98476011     0.0059810044   0.89397689    -0.083458556  
    738000   1.0375913      0.0069041051   0.93574242    -0.094131301  
    739000   1.0014617      0.0057207048   0.90558838    -0.088424394  
    740000   0.92738762     0.0067607972   0.84240365    -0.078086042  
    741000   0.99303629     0.0067512916   0.90990735    -0.075742726  
    742000   0.95407494     0.0057615751   0.85984732    -0.087131203  
    743000   1.0166655      0.006216499    0.94834301    -0.060760508  
    744000   0.98936219     0.0063055189   0.90278839    -0.079214913  
    745000   0.99943526     0.0058552536   0.90960468    -0.082396764  
    746000   0.99185243     0.0062589091   0.90316449    -0.081310527  
    747000   0.9675602      0.0054885288   0.89237375    -0.06798972   
    748000   0.94824328     0.0059162888   0.87226339    -0.068926838  
    749000   1.0625832      0.0062427122   0.9767125     -0.077967165  
    750000   1.0017718      0.0059121603   0.90555035    -0.088770296  
    751000   1.0374999      0.0065442682   0.94802751    -0.081755438  
    752000   1.0458008      0.0062750699   0.9606951     -0.077327002  
    753000   1.0640368      0.0062675387   0.98996362    -0.066158826  
    754000   1.0134023      0.0060406789   0.93682733    -0.069037262  
    755000   0.98876328     0.0045741684   0.90860052    -0.072808322  
    756000   0.95209018     0.0061728496   0.87743009    -0.067578422  
    757000   1.0205736      0.0065430717   0.93291077    -0.080071807  
    758000   0.95639239     0.00542796     0.88593337    -0.063345351  
    759000   0.95371931     0.0065907881   0.87352877    -0.073096758  
    760000   1.0059886      0.0065266194   0.92979073    -0.068715361  
    761000   1.0749611      0.0058748056   0.997774      -0.06919151   
    762000   1.0285681      0.0058785291   0.94394503    -0.076972514  
    763000   1.0842533      0.0064624019   0.98656266    -0.089625933  
    764000   1.0349394      0.0059056589   0.93973149    -0.087509998  
    765000   1.0220937      0.0054827226   0.92868711    -0.085804262  
    766000   0.94299089     0.0047098539   0.86511485    -0.070862057  
    767000   1.0159444      0.0055313749   0.93694202    -0.071445777  
    768000   1.0499106      0.0067260188   0.96361105    -0.078490326  
    769000   0.99604967     0.0068244565   0.91572564    -0.072915401  
    770000   0.98251499     0.0059043512   0.88446582    -0.090741209  
    771000   0.949158       0.0064283208   0.86021463    -0.081883515  
    772000   1.0299556      0.0054798678   0.9415035     -0.080791245  
    773000   0.98399136     0.0071800293   0.8949211     -0.081751311  
    774000   0.87210458     0.0048929548   0.77449001    -0.091127848  
    775000   0.99255407     0.006695066    0.90809842    -0.077073018  
    776000   1.0359451      0.0076246984   0.94487156    -0.083368152  
    777000   0.98941669     0.0062221936   0.89783985    -0.084217536  
    778000   0.97301058     0.0066659712   0.86821716    -0.097556148  
    779000   0.99725467     0.0064403637   0.90434222    -0.08549485   
    780000   1.0853991      0.0060726469   1.0056997     -0.071626168  
    781000   1.0377348      0.0059784418   0.95387471    -0.076141393  
    782000   1.0021924      0.0050127421   0.93092024    -0.063817857  
    783000   1.0518593      0.0068971136   0.96600988    -0.078025668  
    784000   1.0027319      0.0054432442   0.90366872    -0.091604794  
    785000   0.97734097     0.0052168978   0.88627318    -0.083798303  
    786000   1.0101461      0.00565406     0.91854353    -0.084089084  
    787000   1.0473156      0.0063439136   0.97008232    -0.069443374  
    788000   0.98260051     0.0068797448   0.90239287    -0.072899041  
    789000   0.94838517     0.0056464422   0.8664124     -0.074918665  
    790000   0.95557865     0.0060584372   0.86282801    -0.085643032  
    791000   1.0369102      0.0065413616   0.9590611     -0.070136516  
    792000   1.049756       0.006201316    0.96434688    -0.077601003  
    793000   0.96024498     0.0068036084   0.86182189    -0.091280768  
    794000   0.9745067      0.006006822    0.88703854    -0.080219761  
    795000   1.0046653      0.0062188568   0.92138687    -0.07580566   
    796000   0.93199148     0.0057403301   0.84469583    -0.080363479  
    797000   0.99378432     0.006543893    0.93119094    -0.05520159   
    798000   1.0086359      0.0057529077   0.93069364    -0.070440052  
    799000   1.0218127      0.0061434391   0.92978378    -0.084428639  
    800000   1.0186624      0.0066706189   0.93862651    -0.072459045  
    801000   1.0443105      0.0064117089   0.96095547    -0.075587391  
    802000   1.0564242      0.0061512724   0.98065577    -0.0679107    
    803000   1.0665566      0.0070013728   0.98826113    -0.070362421  
    804000   0.97551192     0.006040597    0.89792127    -0.070334778  
    805000   0.983267       0.0058705036   0.91362779    -0.062325653  
    806000   0.99290972     0.0066707454   0.9048388     -0.080685645  
    807000   1.0193401      0.0067828742   0.9326905     -0.079067689  
    808000   0.91406446     0.0051357105   0.82837082    -0.078894811  
    809000   1.0136397      0.0067295963   0.9260032     -0.080097007  
    810000   1.0097277      0.0068296973   0.91002424    -0.092193075  
    811000   0.97595485     0.0059727551   0.89006946    -0.078626227  
    812000   1.0525275      0.0072058198   0.96690694    -0.077791799  
    813000   0.99983459     0.0052660166   0.91352275    -0.07887505   
    814000   1.0223866      0.0065584165   0.94520274    -0.069579282  
    815000   1.0043326      0.0059461728   0.92182395    -0.075038424  
    816000   1.00084        0.0067599618   0.89725549    -0.096140223  
    817000   0.98526112     0.0048088349   0.89180811    -0.086124622  
    818000   0.98333972     0.0049925841   0.88089394    -0.095131681  
    819000   1.0338898      0.0059319169   0.93700167    -0.089198082  
    820000   0.95242008     0.0066803733   0.86950827    -0.075827694  
    821000   0.99251612     0.0061343449   0.90210571    -0.083028056  
    822000   1.01989        0.0065590066   0.93546733    -0.076836676  
    823000   1.0266623      0.0062873105   0.94224687    -0.076779149  
    824000   1.0459388      0.0062098419   0.9600267     -0.078132351  
    825000   1.0010172      0.0062138728   0.91476163    -0.078809976  
    826000   0.98592804     0.0062586196   0.90557091    -0.073023777  
    827000   0.98676737     0.0063845823   0.8864196     -0.093008174  
    828000   0.95326508     0.0052631418   0.85590506    -0.090269623  
    829000   0.96415379     0.0058402922   0.86183995    -0.095142449  
    830000   0.99785275     0.0066167264   0.90482764    -0.085603067  
    831000   0.96754997     0.0063165135   0.86987021    -0.090483109  
    832000   0.9784334      0.0058178834   0.8670262     -0.1041296    
    833000   1.0163084      0.0063620237   0.91528158    -0.09346751   
    834000   1.0262086      0.0073104611   0.91523166    -0.10334396   
    835000   0.94279768     0.005119598    0.85077444    -0.085010695  
    836000   1.0049141      0.0067207368   0.9071916     -0.090247974  
    837000   1.0222194      0.005725168    0.92228403    -0.092332103  
    838000   1.0553244      0.0067520038   0.94239976    -0.10507514   
    839000   0.9858634      0.0058774225   0.86223795    -0.11629259   
    840000   1.0140586      0.0058239894   0.90104358    -0.10547246   
    841000   1.0158275      0.0059690771   0.88987656    -0.11839518   
    842000   0.97793419     0.0055201771   0.83983156    -0.13082874   
    843000   0.99334579     0.0052319184   0.87130297    -0.1146543    
    844000   0.97805722     0.0065983693   0.84613316    -0.12464925   
    845000   1.0730522      0.0059649941   0.93895211    -0.12611868   
    846000   1.0402537      0.0065962535   0.93279659    -0.099719678  
    847000   1.0169972      0.0066348582   0.8998315     -0.10960124   
    848000   1.0260233      0.0057082343   0.91732779    -0.10106397   
    849000   0.92875278     0.0053176796   0.81482755    -0.10701715   
    850000   1.0732859      0.0063721918   0.96584425    -0.099458571  
    851000   0.99939193     0.0060103497   0.87611628    -0.11584216   
    852000   0.96254213     0.005669105    0.85042086    -0.10496186   
    853000   0.99291081     0.0047165217   0.87943923    -0.10608629   
    854000   1.0058278      0.0060436762   0.90394912    -0.094397365  
    855000   0.96263467     0.0070152359   0.85475657    -0.100718     
    856000   1.0631722      0.0061903041   0.93718759    -0.11807674   
    857000   0.92493194     0.0058201907   0.80389639    -0.11415589   
    858000   1.0193952      0.0061454148   0.91178441    -0.1000285    
    859000   0.98819696     0.0051900754   0.88451966    -0.09632707   
    860000   1.0115624      0.0068780854   0.91251135    -0.091527076  
    861000   1.0280525      0.0061823541   0.92819691    -0.092208939  
    862000   1.0289442      0.00572505     0.91232509    -0.10896578   
    863000   1.0116038      0.0064531611   0.89407822    -0.11000124   
    864000   1.0221809      0.0066667391   0.90143688    -0.113141     
    865000   1.0233172      0.0065282663   0.91377426    -0.10193152   
    866000   1.016862       0.0054683301   0.90929998    -0.099998571  
    867000   0.98447152     0.0058271523   0.87318348    -0.10396552   
    868000   1.0129691      0.0055705456   0.91293804    -0.092496608  
    869000   1.0018828      0.005618556    0.88967486    -0.1047559    
    870000   0.99563103     0.0064601272   0.88463456    -0.10359095   
    871000   0.91787983     0.0057527804   0.80660016    -0.10445247   
    872000   1.0178873      0.0067169681   0.90561583    -0.10470039   
    873000   0.99452573     0.005535253    0.89505957    -0.092068867  
    874000   0.99323252     0.0056657213   0.90207349    -0.083771352  
    875000   1.0108259      0.0068050203   0.92697351    -0.076333893  
    876000   1.013182       0.0064288386   0.93146281    -0.074183119  
    877000   1.0421794      0.0060820139   0.96009342    -0.074334236  
    878000   0.9554422      0.0048410827   0.86723757    -0.081098038  
    879000   0.99907325     0.0058524685   0.91840427    -0.073237856  
    880000   0.99641511     0.0074670573   0.91922948    -0.069774277  
    881000   0.96906501     0.005876501    0.88241701    -0.079440079  
    882000   1.0222828      0.0058418068   0.95142562    -0.06325339   
    883000   0.93596102     0.005964087    0.85010642    -0.078892909  
    884000   0.96189429     0.0054685286   0.87824744    -0.076492263  
    885000   1.0793339      0.0065802506   1.0009548     -0.070350978  
    886000   0.97008559     0.0055788914   0.89400927    -0.068860807  
    887000   1.0199319      0.0064521651   0.93654706    -0.07579862   
    888000   1.0402905      0.0068961971   0.96082285    -0.071729929  
    889000   0.99823912     0.0056001427   0.92552658    -0.06528762   
    890000   0.97805853     0.0068459168   0.90656076    -0.064222959  
    891000   1.006196       0.0052173849   0.92798955    -0.070722297  
    892000   0.96004227     0.0059284508   0.88928755    -0.06361391   
    893000   1.0495931      0.0055983468   0.9741804     -0.067605856  
    894000   1.0576681      0.0062794082   0.98004116    -0.069759969  
    895000   1.0414718      0.0063559749   0.96714683    -0.066578506  
    896000   0.99134737     0.0061768335   0.91165388    -0.072319832  
    897000   0.96188461     0.0052097385   0.88974137    -0.06498873   
    898000   1.0493405      0.0060750298   0.97073482    -0.070800712  
    899000   1.0127411      0.0061989258   0.90923622    -0.095972114  
    900000   1.0289225      0.006471792    0.91620413    -0.10506521   
    901000   0.97834253     0.0053656379   0.87802113    -0.093044463  
    902000   1.0406736      0.0062266126   0.93439168    -0.098541419  
    903000   0.99522155     0.0051181906   0.87208674    -0.11573233   
    904000   1.0214198      0.0060834202   0.91300284    -0.10081961   
    905000   1.0338733      0.0062823052   0.92492795    -0.10125534   
    906000   1.0023753      0.0056847985   0.89375984    -0.10115974   
    907000   0.99699906     0.0061933441   0.88959696    -0.09998641   
    908000   0.94069377     0.0060639174   0.84175221    -0.091944669  
    909000   1.0428378      0.0062508614   0.95917305    -0.07590807   
    910000   0.98814431     0.0061853833   0.87919975    -0.10159472   
    911000   0.99220197     0.0072510874   0.86993863    -0.11488332   
    912000   1.0774494      0.0069988816   0.95467069    -0.11476463   
    913000   0.97064679     0.0065084435   0.84675277    -0.11667433   
    914000   1.0300206      0.0052625188   0.93334876    -0.089010523  
    915000   0.99741673     0.0058877882   0.87797495    -0.11202297   
    916000   1.029612       0.0058819894   0.92122428    -0.10072941   
    917000   0.99769496     0.0061381822   0.89265329    -0.097620804  
    918000   0.95486341     0.0065985175   0.82871474    -0.11904638   
    919000   0.98895487     0.0053727378   0.86974086    -0.11185815   
    920000   0.97426035     0.0066721819   0.85447352    -0.11254026   
    921000   1.0386774      0.0065699632   0.93550161    -0.095450121  
    922000   0.95471615     0.0060021074   0.83819935    -0.10941561   
    923000   1.0233668      0.0060841987   0.90502771    -0.11072723   
    924000   0.98379804     0.0058983162   0.87241008    -0.10407045   
    925000   1.1579913      0.0065053513   1.0572985     -0.092079649  
    926000   1.0142159      0.0050031939   0.91434648    -0.092325622  
    927000   1.0245777      0.0056865099   0.91880451    -0.098152368  
    928000   0.9782243      0.0064197118   0.86207812    -0.10887013   
    929000   0.95183914     0.0052710509   0.84413484    -0.1006245    
    930000   1.0115832      0.0069657234   0.8866716     -0.11738742   
    931000   0.91671873     0.0053526576   0.80055825    -0.10934191   
    932000   0.99923911     0.0062855021   0.89594106    -0.095865689  
    933000   1.0119026      0.0059334596   0.9023579     -0.10201811   
    934000   1.0080843      0.0058381318   0.88771041    -0.11287572   
    935000   0.9318171      0.0054898702   0.83281615    -0.092070078  
    936000   1.0012275      0.0058916732   0.89179692    -0.10198341   
    937000   0.99435516     0.0066249573   0.87752762    -0.10943151   
    938000   1.0062881      0.0058921021   0.88490007    -0.11390322   
    939000   0.88404585     0.0057011831   0.77423198    -0.10323832   
    940000   0.98337253     0.0062181837   0.88131144    -0.094746746  
    941000   0.97638381     0.0055048467   0.85496959    -0.11415186   
    942000   1.0307597      0.006914355    0.90898642    -0.11410647   
    943000   0.90350438     0.0047981674   0.79833546    -0.098448643  
    944000   0.99666723     0.0062721123   0.88500872    -0.10424528   
    945000   1.0285383      0.0062054053   0.92985685    -0.09103116   
    946000   0.99015986     0.0053379834   0.88676016    -0.096034871  
    947000   0.97295545     0.006014844    0.87839722    -0.087321374  
    948000   1.0731893      0.0061400192   0.97730482    -0.087902047  
    949000   0.94766343     0.0063403032   0.85169495    -0.088919749  
    950000   1.0407568      0.0067622817   0.92609194    -0.10692364   
    951000   0.9707477      0.0058853142   0.86817315    -0.095354111  
    952000   1.0265634      0.0069034753   0.92395956    -0.094968254  
    953000   1.0184453      0.0060865715   0.90160537    -0.10926467   
    954000   1.0992289      0.0070668194   0.99866811    -0.09238473   
    955000   1.0504728      0.0063815884   0.96751429    -0.075145068  
    956000   1.0061182      0.0053266091   0.92262066    -0.076014033  
    957000   1.0312411      0.0070339179   0.9306959     -0.092874777  
    958000   0.97547063     0.0055417272   0.88453233    -0.083682723  
    959000   1.049527       0.0058045816   0.95376201    -0.087958555  
    960000   1.0021595      0.006535511    0.89816826    -0.096537127  
    961000   0.98716997     0.0059185179   0.88844493    -0.091382451  
    962000   0.96465817     0.0066133079   0.86269135    -0.094791684  
    963000   0.97434371     0.0061513176   0.87106997    -0.096026556  
    964000   0.97440607     0.0054665102   0.87509325    -0.092065177  
    965000   1.0887543      0.0066935958   0.99651203    -0.08414405   
    966000   1.0421104      0.0064179714   0.94291714    -0.091442018  
    967000   1.0115891      0.0054882619   0.92422094    -0.079843963  
    968000   0.96537083     0.0067243837   0.87008914    -0.088101243  
    969000   0.99233895     0.0068032913   0.87501327    -0.10994464   
    970000   1.0544898      0.0055450722   0.93847148    -0.10817503   
    971000   1.0407891      0.0058845981   0.93355525    -0.09949248   
    972000   1.0625847      0.0061066194   0.96330593    -0.091375257  
    973000   1.0386372      0.0059565517   0.94569008    -0.08522172   
    974000   0.96809278     0.0069882673   0.86055335    -0.10033875   
    975000   0.98759997     0.0063099695   0.88094329    -0.099310903  
    976000   0.97454234     0.0062079817   0.86879547    -0.09849821   
    977000   0.98791981     0.0049626113   0.89922535    -0.081346298  
    978000   0.96769427     0.0064004703   0.87382451    -0.086672036  
    979000   0.98219596     0.0057911502   0.87679523    -0.098095143  
    980000   0.96979231     0.0060797839   0.85983579    -0.10274319   
    981000   1.0612541      0.0083265014   0.95305464    -0.10030587   
    982000   0.9585882      0.0049769187   0.86447976    -0.086978442  
    983000   0.9989123      0.0071224565   0.93010316    -0.061379213  
    984000   0.95214505     0.0063445282   0.84885333    -0.096209648  
    985000   1.0259098      0.0056960901   0.92580781    -0.092471307  
    986000   1.0648455      0.0062705234   0.98499541    -0.07192973   
    987000   0.98911823     0.0057590989   0.89527636    -0.086484787  
    988000   1.0081006      0.0058606464   0.91770008    -0.082902254  
    989000   1.0944566      0.0060920172   1.0084543     -0.07786167   
    990000   1.0079637      0.0072032421   0.95206991    -0.048396563  
    991000   0.9707126      0.0060698012   0.90609131    -0.057401116  
    992000   0.95501264     0.0065236781   0.89935582    -0.048553428  
    993000   0.94568737     0.0059350293   0.90420278    -0.034450554  
    994000   0.95454818     0.0066153911   0.90379682    -0.043651413  
    995000   0.96620216     0.0068505776   0.89815905    -0.060856482  
    996000   1.0011212      0.005600855    0.93564672    -0.058028076  
    997000   1.0025734      0.0053891472   0.94171427    -0.053401932  
    998000   1.0151802      0.006298168    0.96421033    -0.043418957  
    999000   0.98174065     0.0062826286   0.92579656    -0.04864189   
   1000000   0.98339396     0.0065904602   0.93364608    -0.042433371  
Loop time of 28.303 on 1 procs for 1000000 steps with 605 atoms

Performance: 30526751.104 tau/day, 35331.888 timesteps/s
98.6% CPU use with 1 MPI tasks x no OpenMP threads

MPI task timing breakdown:
Section |  min time  |  avg time  |  max time  |%varavg| %total
---------------------------------------------------------------
Pair    | 1.5282     | 1.5282     | 1.5282     |   0.0 |  5.40
Bond    | 0.044107   | 0.044107   | 0.044107   |   0.0 |  0.16
Neigh   | 6.9272     | 6.9272     | 6.9272     |   0.0 | 24.47
Comm    | 1.2992     | 1.2992     | 1.2992     |   0.0 |  4.59
Output  | 0.50617    | 0.50617    | 0.50617    |   0.0 |  1.79
Modify  | 16.002     | 16.002     | 16.002     |   0.0 | 56.54
Other   |            | 1.997      |            |       |  7.05

Nlocal:            605 ave         605 max         605 min
Histogram: 1 0 0 0 0 0 0 0 0 0
Nghost:             91 ave          91 max          91 min
Histogram: 1 0 0 0 0 0 0 0 0 0
Neighs:             16 ave          16 max          16 min
Histogram: 1 0 0 0 0 0 0 0 0 0

Total # of neighbors = 16
Ave neighs/atom = 0.026446281
Ave special neighs/atom = 0
Neighbor list builds = 218328
Dangerous builds = 0
Total wall time: 0:00:28
