ITEM: TIMESTEP
0
ITEM: NUMBER OF ATOMS
5
ITEM: BOX BOUNDS pp pp pp
-1.5625000000000000e+03 1.5625000000000000e+03
-1.5625000000000000e+03 1.5625000000000000e+03
-5.0000000000000003e-02 5.0000000000000003e-02
ITEM: ATOMS id type mol x y z
5 2 1 150 406.888 0
2 2 1 144.388 412.5 0
1 1 1 150 412.5 0
4 2 1 155.612 412.5 0
3 2 1 150 418.112 0
ITEM: TIMESTEP
1000
ITEM: NUMBER OF ATOMS
5
ITEM: BOX BOUNDS pp pp pp
-1.5625000000000000e+03 1.5625000000000000e+03
-1.5625000000000000e+03 1.5625000000000000e+03
-5.0000000000000003e-02 5.0000000000000003e-02
ITEM: ATOMS id type mol x y z
5 2 1 148.309 405.447 -7.78865e-17
2 2 1 141.87 410.087 1.06364e-15
1 1 1 147.409 410.987 0
4 2 1 152.949 411.887 -1.06364e-15
3 2 1 146.509 416.526 7.78865e-17
ITEM: TIMESTEP
2000
ITEM: NUMBER OF ATOMS
5
ITEM: BOX BOUNDS pp pp pp
-1.5625000000000000e+03 1.5625000000000000e+03
-1.5625000000000000e+03 1.5625000000000000e+03
-5.0000000000000003e-02 5.0000000000000003e-02
ITEM: ATOMS id type mol x y z
5 2 1 153.805 404.825 -6.23092e-16
2 2 1 146.088 406.682 9.34637e-16
1 1 1 150.875 409.612 0
4 2 1 155.662 412.542 -9.34637e-16
3 2 1 147.945 414.399 6.23092e-16
ITEM: TIMESTEP
3000
ITEM: NUMBER OF ATOMS
5
ITEM: BOX BOUNDS pp pp pp
-1.5625000000000000e+03 1.5625000000000000e+03
-1.5625000000000000e+03 1.5625000000000000e+03
-5.0000000000000003e-02 5.0000000000000003e-02
ITEM: ATOMS id type mol x y z
2 2 1 150.088 406.651 7.00978e-16
5 2 1 158.021 406.42 -6.23092e-16
3 2 1 150.32 414.585 6.23092e-16
1 1 1 154.17 410.502 0
4 2 1 158.253 414.353 -7.00978e-16
ITEM: TIMESTEP
4000
ITEM: NUMBER OF ATOMS
5
ITEM: BOX BOUNDS pp pp pp
-1.5625000000000000e+03 1.5625000000000000e+03
-1.5625000000000000e+03 1.5625000000000000e+03
-5.0000000000000003e-02 5.0000000000000003e-02
ITEM: ATOMS id type mol x y z
2 2 1 152.833 410.956 8.76223e-16
5 2 1 160.199 408 -4.67319e-16
3 2 1 155.788 418.322 4.67319e-16
1 1 1 157.994 413.161 0
4 2 1 163.154 415.367 -8.76223e-16
ITEM: TIMESTEP
5000
ITEM: NUMBER OF ATOMS
5
ITEM: BOX BOUNDS pp pp pp
-1.5625000000000000e+03 1.5625000000000000e+03
-1.5625000000000000e+03 1.5625000000000000e+03
-5.0000000000000003e-02 5.0000000000000003e-02
ITEM: ATOMS id type mol x y z
5 2 1 162.306 408.503 -1.55773e-15
2 2 1 154.369 408.475 3.11546e-16
1 1 1 158.323 412.457 0
3 2 1 154.34 416.412 1.55773e-15
4 2 1 162.277 416.44 -3.11546e-16
ITEM: TIMESTEP
6000
ITEM: NUMBER OF ATOMS
5
ITEM: BOX BOUNDS pp pp pp
-1.5625000000000000e+03 1.5625000000000000e+03
-1.5625000000000000e+03 1.5625000000000000e+03
-5.0000000000000003e-02 5.0000000000000003e-02
ITEM: ATOMS id type mol x y z
2 2 1 154.172 410.96 -8.56751e-16
5 2 1 161.887 412.821 -1.55773e-15
1 1 1 157.099 415.749 0
3 2 1 152.31 418.676 1.55773e-15
4 2 1 160.026 420.537 8.56751e-16
ITEM: TIMESTEP
7000
ITEM: NUMBER OF ATOMS
5
ITEM: BOX BOUNDS pp pp pp
-1.5625000000000000e+03 1.5625000000000000e+03
-1.5625000000000000e+03 1.5625000000000000e+03
-5.0000000000000003e-02 5.0000000000000003e-02
ITEM: ATOMS id type mol x y z
2 2 1 156.528 410.111 -7.00978e-16
5 2 1 164.35 411.456 -1.55773e-15
3 2 1 155.183 417.934 1.55773e-15
1 1 1 159.767 414.695 0
4 2 1 163.006 419.278 7.00978e-16
ITEM: TIMESTEP
8000
ITEM: NUMBER OF ATOMS
5
ITEM: BOX BOUNDS pp pp pp
-1.5625000000000000e+03 1.5625000000000000e+03
-1.5625000000000000e+03 1.5625000000000000e+03
-5.0000000000000003e-02 5.0000000000000003e-02
ITEM: ATOMS id type mol x y z
2 2 1 155.982 410.465 -9.34637e-16
1 1 1 158.336 415.56 0
5 2 1 163.43 413.206 -1.55773e-15
3 2 1 153.241 417.914 1.55773e-15
4 2 1 160.69 420.655 9.34637e-16
ITEM: TIMESTEP
9000
ITEM: NUMBER OF ATOMS
5
ITEM: BOX BOUNDS pp pp pp
-1.5625000000000000e+03 1.5625000000000000e+03
-1.5625000000000000e+03 1.5625000000000000e+03
-5.0000000000000003e-02 5.0000000000000003e-02
ITEM: ATOMS id type mol x y z
2 2 1 157.124 410.214 -1.09041e-15
5 2 1 163.865 414.403 -1.24618e-15
3 2 1 152.935 416.955 1.24618e-15
1 1 1 158.4 415.679 0
4 2 1 159.676 421.144 1.09041e-15
ITEM: TIMESTEP
10000
ITEM: NUMBER OF ATOMS
5
ITEM: BOX BOUNDS pp pp pp
-1.5625000000000000e+03 1.5625000000000000e+03
-1.5625000000000000e+03 1.5625000000000000e+03
-5.0000000000000003e-02 5.0000000000000003e-02
ITEM: ATOMS id type mol x y z
2 2 1 158.963 411.47 -1.09041e-15
5 2 1 164.907 416.729 -2.49237e-15
3 2 1 153.703 417.415 2.49237e-15
1 1 1 159.305 417.072 0
4 2 1 159.648 422.674 1.09041e-15
ITEM: TIMESTEP
11000
ITEM: NUMBER OF ATOMS
5
ITEM: BOX BOUNDS pp pp pp
-1.5625000000000000e+03 1.5625000000000000e+03
-1.5625000000000000e+03 1.5625000000000000e+03
-5.0000000000000003e-02 5.0000000000000003e-02
ITEM: ATOMS id type mol x y z
2 2 1 158.093 410.35 -1.24618e-15
3 2 1 151.971 415.401 2.49237e-15
1 1 1 157.557 415.936 0
5 2 1 163.144 416.472 -2.49237e-15
4 2 1 157.022 421.523 1.24618e-15
ITEM: TIMESTEP
12000
ITEM: NUMBER OF ATOMS
5
ITEM: BOX BOUNDS pp pp pp
-1.5625000000000000e+03 1.5625000000000000e+03
-1.5625000000000000e+03 1.5625000000000000e+03
-5.0000000000000003e-02 5.0000000000000003e-02
ITEM: ATOMS id type mol x y z
2 2 1 162.157 410.559 -2.49237e-15
3 2 1 154.5 412.646 3.11546e-15
1 1 1 159.372 415.431 0
5 2 1 164.244 418.216 -3.11546e-15
4 2 1 156.587 420.303 2.49237e-15
ITEM: TIMESTEP
13000
ITEM: NUMBER OF ATOMS
5
ITEM: BOX BOUNDS pp pp pp
-1.5625000000000000e+03 1.5625000000000000e+03
-1.5625000000000000e+03 1.5625000000000000e+03
-5.0000000000000003e-02 5.0000000000000003e-02
ITEM: ATOMS id type mol x y z
3 2 1 154.836 412.243 4.0501e-15
2 2 1 161.397 407.775 -1.24618e-15
1 1 1 160.35 413.289 0
4 2 1 159.304 418.803 1.24618e-15
5 2 1 165.864 414.336 -4.0501e-15
ITEM: TIMESTEP
14000
ITEM: NUMBER OF ATOMS
5
ITEM: BOX BOUNDS pp pp pp
-1.5625000000000000e+03 1.5625000000000000e+03
-1.5625000000000000e+03 1.5625000000000000e+03
-5.0000000000000003e-02 5.0000000000000003e-02
ITEM: ATOMS id type mol x y z
2 2 1 157.542 409.379 1.09041e-15
3 2 1 152.846 415.777 4.36164e-15
1 1 1 158.393 414.926 0
5 2 1 163.94 414.074 -4.36164e-15
4 2 1 159.245 420.473 -1.09041e-15
ITEM: TIMESTEP
15000
ITEM: NUMBER OF ATOMS
5
ITEM: BOX BOUNDS pp pp pp
-1.5625000000000000e+03 1.5625000000000000e+03
-1.5625000000000000e+03 1.5625000000000000e+03
-5.0000000000000003e-02 5.0000000000000003e-02
ITEM: ATOMS id type mol x y z
2 2 1 159.634 410.889 2.33659e-15
1 1 1 160.916 416.353 0
5 2 1 166.38 415.071 -4.36164e-15
3 2 1 155.452 417.635 4.36164e-15
4 2 1 162.197 421.817 -2.33659e-15
ITEM: TIMESTEP
16000
ITEM: NUMBER OF ATOMS
5
ITEM: BOX BOUNDS pp pp pp
-1.5625000000000000e+03 1.5625000000000000e+03
-1.5625000000000000e+03 1.5625000000000000e+03
-5.0000000000000003e-02 5.0000000000000003e-02
ITEM: ATOMS id type mol x y z
2 2 1 158.888 411.946 3.58278e-15
5 2 1 166.191 415.053 -6.23092e-15
3 2 1 155.781 419.249 6.23092e-15
1 1 1 160.986 417.151 0
4 2 1 163.084 422.357 -3.58278e-15
ITEM: TIMESTEP
17000
ITEM: NUMBER OF ATOMS
5
ITEM: BOX BOUNDS pp pp pp
-1.5625000000000000e+03 1.5625000000000000e+03
-1.5625000000000000e+03 1.5625000000000000e+03
-5.0000000000000003e-02 5.0000000000000003e-02
ITEM: ATOMS id type mol x y z
2 2 1 158.455 410.883 3.89432e-15
5 2 1 165.9 413.632 -6.54246e-15
3 2 1 155.706 418.329 6.54246e-15
1 1 1 160.803 415.981 0
4 2 1 163.152 421.078 -3.89432e-15
ITEM: TIMESTEP
18000
ITEM: NUMBER OF ATOMS
5
ITEM: BOX BOUNDS pp pp pp
-1.5625000000000000e+03 1.5625000000000000e+03
-1.5625000000000000e+03 1.5625000000000000e+03
-5.0000000000000003e-02 5.0000000000000003e-02
ITEM: ATOMS id type mol x y z
2 2 1 158.028 413.672 7.59393e-15
5 2 1 165.657 411.482 -3.27123e-15
3 2 1 160.218 421.301 3.27123e-15
1 1 1 162.938 416.391 0
4 2 1 167.847 419.111 -7.59393e-15
ITEM: TIMESTEP
19000
ITEM: NUMBER OF ATOMS
5
ITEM: BOX BOUNDS pp pp pp
-1.5625000000000000e+03 1.5625000000000000e+03
-1.5625000000000000e+03 1.5625000000000000e+03
-5.0000000000000003e-02 5.0000000000000003e-02
ITEM: ATOMS id type mol x y z
2 2 1 154.056 412.817 6.69823e-15
5 2 1 161.984 412.451 -4.98473e-15
1 1 1 158.203 416.598 0
4 2 1 162.35 420.38 -6.69823e-15
3 2 1 154.421 420.746 4.98473e-15
ITEM: TIMESTEP
20000
ITEM: NUMBER OF ATOMS
5
ITEM: BOX BOUNDS pp pp pp
-1.5625000000000000e+03 1.5625000000000000e+03
-1.5625000000000000e+03 1.5625000000000000e+03
-5.0000000000000003e-02 5.0000000000000003e-02
ITEM: ATOMS id type mol x y z
2 2 1 154.83 411.668 7.28238e-15
5 2 1 162.706 410.689 -3.73855e-15
3 2 1 155.809 419.545 3.73855e-15
1 1 1 159.257 415.117 0
4 2 1 163.685 418.566 -7.28238e-15
ITEM: TIMESTEP
21000
ITEM: NUMBER OF ATOMS
5
ITEM: BOX BOUNDS pp pp pp
-1.5625000000000000e+03 1.5625000000000000e+03
-1.5625000000000000e+03 1.5625000000000000e+03
-5.0000000000000003e-02 5.0000000000000003e-02
ITEM: ATOMS id type mol x y z
2 2 1 154.624 411.192 7.63287e-15
1 1 1 158.658 415.094 0
5 2 1 162.56 411.061 -4.67319e-15
3 2 1 154.756 419.128 4.67319e-15
4 2 1 162.692 418.996 -7.63287e-15
ITEM: TIMESTEP
22000
ITEM: NUMBER OF ATOMS
5
ITEM: BOX BOUNDS pp pp pp
-1.5625000000000000e+03 1.5625000000000000e+03
-1.5625000000000000e+03 1.5625000000000000e+03
-5.0000000000000003e-02 5.0000000000000003e-02
ITEM: ATOMS id type mol x y z
2 2 1 150.152 410.014 7.08767e-15
1 1 1 153.899 414.192 0
5 2 1 158.077 410.445 -6.23092e-15
3 2 1 149.72 417.939 6.23092e-15
4 2 1 157.646 418.37 -7.08767e-15
ITEM: TIMESTEP
23000
ITEM: NUMBER OF ATOMS
5
ITEM: BOX BOUNDS pp pp pp
-1.5625000000000000e+03 1.5625000000000000e+03
-1.5625000000000000e+03 1.5625000000000000e+03
-5.0000000000000003e-02 5.0000000000000003e-02
ITEM: ATOMS id type mol x y z
2 2 1 149.528 408.942 7.55499e-15
1 1 1 153.254 413.14 0
5 2 1 157.451 409.414 -4.0501e-15
3 2 1 149.057 416.865 4.0501e-15
4 2 1 156.98 417.337 -7.55499e-15
ITEM: TIMESTEP
24000
ITEM: NUMBER OF ATOMS
5
ITEM: BOX BOUNDS pp pp pp
-1.5625000000000000e+03 1.5625000000000000e+03
-1.5625000000000000e+03 1.5625000000000000e+03
-5.0000000000000003e-02 5.0000000000000003e-02
ITEM: ATOMS id type mol x y z
2 2 1 150.004 413.853 8.99589e-15
1 1 1 155.029 416.353 0
5 2 1 157.528 411.328 -9.34637e-16
3 2 1 152.53 421.378 9.34637e-16
4 2 1 160.054 418.852 -8.99589e-15
ITEM: TIMESTEP
25000
ITEM: NUMBER OF ATOMS
5
ITEM: BOX BOUNDS pp pp pp
-1.5625000000000000e+03 1.5625000000000000e+03
-1.5625000000000000e+03 1.5625000000000000e+03
-5.0000000000000003e-02 5.0000000000000003e-02
ITEM: ATOMS id type mol x y z
2 2 1 149.265 417.282 7.19126e-15
5 2 1 154.7 411.498 5.78307e-15
1 1 1 154.874 417.108 0
4 2 1 160.484 416.933 -7.19126e-15
3 2 1 155.049 422.717 -5.78307e-15
ITEM: TIMESTEP
26000
ITEM: NUMBER OF ATOMS
5
ITEM: BOX BOUNDS pp pp pp
-1.5625000000000000e+03 1.5625000000000000e+03
-1.5625000000000000e+03 1.5625000000000000e+03
-5.0000000000000003e-02 5.0000000000000003e-02
ITEM: ATOMS id type mol x y z
5 2 1 155.147 411.519 6.6184e-14
2 2 1 149.434 417.028 7.79865e-15
1 1 1 155.045 417.13 0
4 2 1 160.657 417.232 -7.79865e-15
3 2 1 154.943 422.742 -6.6184e-14
ITEM: TIMESTEP
27000
ITEM: NUMBER OF ATOMS
5
ITEM: BOX BOUNDS pp pp pp
-1.5625000000000000e+03 1.5625000000000000e+03
-1.5625000000000000e+03 1.5625000000000000e+03
-5.0000000000000003e-02 5.0000000000000003e-02
ITEM: ATOMS id type mol x y z
5 2 1 158.253 412.728 1.35834e-13
2 2 1 150.543 414.608 8.3027e-14
1 1 1 155.338 417.524 0
4 2 1 160.134 420.439 -8.3027e-14
3 2 1 152.423 422.319 -1.35834e-13
ITEM: TIMESTEP
28000
ITEM: NUMBER OF ATOMS
5
ITEM: BOX BOUNDS pp pp pp
-1.5625000000000000e+03 1.5625000000000000e+03
-1.5625000000000000e+03 1.5625000000000000e+03
-5.0000000000000003e-02 5.0000000000000003e-02
ITEM: ATOMS id type mol x y z
2 2 1 150.231 417.304 -1.02869e-13
5 2 1 153.228 409.955 2.78833e-13
1 1 1 155.404 415.128 0
4 2 1 160.577 412.952 1.02869e-13
3 2 1 157.581 420.301 -2.78833e-13
ITEM: TIMESTEP
29000
ITEM: NUMBER OF ATOMS
5
ITEM: BOX BOUNDS pp pp pp
-1.5625000000000000e+03 1.5625000000000000e+03
-1.5625000000000000e+03 1.5625000000000000e+03
-5.0000000000000003e-02 5.0000000000000003e-02
ITEM: ATOMS id type mol x y z
5 2 1 151.332 407.832 4.26506e-13
1 1 1 154.689 412.33 0
4 2 1 159.187 408.974 2.6053e-13
2 2 1 150.191 415.687 -2.6053e-13
3 2 1 158.045 416.828 -4.26506e-13
ITEM: TIMESTEP
30000
ITEM: NUMBER OF ATOMS
5
ITEM: BOX BOUNDS pp pp pp
-1.5625000000000000e+03 1.5625000000000000e+03
-1.5625000000000000e+03 1.5625000000000000e+03
-5.0000000000000003e-02 5.0000000000000003e-02
ITEM: ATOMS id type mol x y z
5 2 1 153.777 411.786 4.88192e-13
4 2 1 161.661 412.704 3.03134e-13
1 1 1 157.26 416.187 0
2 2 1 152.859 419.67 -3.03134e-13
3 2 1 160.743 420.588 -4.88192e-13
ITEM: TIMESTEP
31000
ITEM: NUMBER OF ATOMS
5
ITEM: BOX BOUNDS pp pp pp
-1.5625000000000000e+03 1.5625000000000000e+03
-1.5625000000000000e+03 1.5625000000000000e+03
-5.0000000000000003e-02 5.0000000000000003e-02
ITEM: ATOMS id type mol x y z
5 2 1 156.303 411.875 3.00486e-13
2 2 1 152.471 418.826 -1.3449e-13
1 1 1 157.862 417.266 0
4 2 1 163.254 415.706 1.3449e-13
3 2 1 159.422 422.657 -3.00486e-13
ITEM: TIMESTEP
32000
ITEM: NUMBER OF ATOMS
5
ITEM: BOX BOUNDS pp pp pp
-1.5625000000000000e+03 1.5625000000000000e+03
-1.5625000000000000e+03 1.5625000000000000e+03
-5.0000000000000003e-02 5.0000000000000003e-02
ITEM: ATOMS id type mol x y z
5 2 1 150.774 415.796 3.49243e-13
2 2 1 154.837 422.614 -7.18269e-13
1 1 1 156.215 417.173 0
4 2 1 157.592 411.732 7.18269e-13
3 2 1 161.655 418.551 -3.49243e-13
ITEM: TIMESTEP
33000
ITEM: NUMBER OF ATOMS
5
ITEM: BOX BOUNDS pp pp pp
-1.5625000000000000e+03 1.5625000000000000e+03
-1.5625000000000000e+03 1.5625000000000000e+03
-5.0000000000000003e-02 5.0000000000000003e-02
ITEM: ATOMS id type mol x y z
4 2 1 155.55 408.733 5.47698e-13
5 2 1 148.353 412.081 1.50165e-13
1 1 1 153.625 414.005 0
3 2 1 158.897 415.93 -1.50165e-13
2 2 1 151.7 419.277 -5.47698e-13
ITEM: TIMESTEP
34000
ITEM: NUMBER OF ATOMS
5
ITEM: BOX BOUNDS pp pp pp
-1.5625000000000000e+03 1.5625000000000000e+03
-1.5625000000000000e+03 1.5625000000000000e+03
-5.0000000000000003e-02 5.0000000000000003e-02
ITEM: ATOMS id type mol x y z
4 2 1 150.015 411.896 2.37709e-13
1 1 1 154.637 415.079 0
3 2 1 157.82 410.456 -4.94112e-13
5 2 1 151.455 419.702 4.94112e-13
2 2 1 159.26 418.261 -2.37709e-13
ITEM: TIMESTEP
35000
ITEM: NUMBER OF ATOMS
5
ITEM: BOX BOUNDS pp pp pp
-1.5625000000000000e+03 1.5625000000000000e+03
-1.5625000000000000e+03 1.5625000000000000e+03
-5.0000000000000003e-02 5.0000000000000003e-02
ITEM: ATOMS id type mol x y z
4 2 1 153.63 411.019 5.20281e-14
1 1 1 158.099 414.412 0
3 2 1 161.493 409.942 -5.99103e-13
5 2 1 154.706 418.882 5.99103e-13
2 2 1 162.569 417.806 -5.20281e-14
ITEM: TIMESTEP
36000
ITEM: NUMBER OF ATOMS
5
ITEM: BOX BOUNDS pp pp pp
-1.5625000000000000e+03 1.5625000000000000e+03
-1.5625000000000000e+03 1.5625000000000000e+03
-5.0000000000000003e-02 5.0000000000000003e-02
ITEM: ATOMS id type mol x y z
4 2 1 152.571 411.979 -1.05302e-13
1 1 1 156.253 416.215 0
3 2 1 160.489 412.533 -5.91625e-13
5 2 1 152.017 419.897 5.91625e-13
2 2 1 159.935 420.45 1.05302e-13
ITEM: TIMESTEP
37000
ITEM: NUMBER OF ATOMS
5
ITEM: BOX BOUNDS pp pp pp
-1.5625000000000000e+03 1.5625000000000000e+03
-1.5625000000000000e+03 1.5625000000000000e+03
-5.0000000000000003e-02 5.0000000000000003e-02
ITEM: ATOMS id type mol x y z
4 2 1 151.745 413.821 -1.85681e-13
3 2 1 159.641 413.011 -5.88822e-13
5 2 1 152.556 421.717 5.88822e-13
1 1 1 156.098 417.364 0
2 2 1 160.451 420.906 1.85681e-13
ITEM: TIMESTEP
38000
ITEM: NUMBER OF ATOMS
5
ITEM: BOX BOUNDS pp pp pp
-1.5625000000000000e+03 1.5625000000000000e+03
-1.5625000000000000e+03 1.5625000000000000e+03
-5.0000000000000003e-02 5.0000000000000003e-02
ITEM: ATOMS id type mol x y z
4 2 1 146.944 415.975 -1.08075e-12
3 2 1 150.919 409.105 -3.52358e-13
1 1 1 152.366 414.528 0
2 2 1 157.789 413.081 1.08075e-12
5 2 1 153.814 419.951 3.52358e-13
ITEM: TIMESTEP
39000
ITEM: NUMBER OF ATOMS
5
ITEM: BOX BOUNDS pp pp pp
-1.5625000000000000e+03 1.5625000000000000e+03
-1.5625000000000000e+03 1.5625000000000000e+03
-5.0000000000000003e-02 5.0000000000000003e-02
ITEM: ATOMS id type mol x y z
3 2 1 150.443 412.905 -7.58458e-13
1 1 1 153.192 417.798 0
2 2 1 158.085 415.05 9.72334e-13
4 2 1 148.299 420.547 -9.72334e-13
5 2 1 155.94 422.691 7.58458e-13
ITEM: TIMESTEP
40000
ITEM: NUMBER OF ATOMS
5
ITEM: BOX BOUNDS pp pp pp
-1.5625000000000000e+03 1.5625000000000000e+03
-1.5625000000000000e+03 1.5625000000000000e+03
-5.0000000000000003e-02 5.0000000000000003e-02
ITEM: ATOMS id type mol x y z
3 2 1 149.054 412.805 -9.09091e-13
2 2 1 156.899 411.599 1.70696e-12
4 2 1 150.26 420.65 -1.70696e-12
1 1 1 153.58 416.124 0
5 2 1 158.105 419.444 9.09091e-13
ITEM: TIMESTEP
41000
ITEM: NUMBER OF ATOMS
5
ITEM: BOX BOUNDS pp pp pp
-1.5625000000000000e+03 1.5625000000000000e+03
-1.5625000000000000e+03 1.5625000000000000e+03
-5.0000000000000003e-02 5.0000000000000003e-02
ITEM: ATOMS id type mol x y z
3 2 1 147.378 417.132 -1.27111e-12
2 2 1 154.892 414.574 1.45554e-12
4 2 1 149.936 424.646 -1.45554e-12
1 1 1 152.414 419.61 0
5 2 1 157.45 422.088 1.27111e-12
ITEM: TIMESTEP
42000
ITEM: NUMBER OF ATOMS
5
ITEM: BOX BOUNDS pp pp pp
-1.5625000000000000e+03 1.5625000000000000e+03
-1.5625000000000000e+03 1.5625000000000000e+03
-5.0000000000000003e-02 5.0000000000000003e-02
ITEM: ATOMS id type mol x y z
2 2 1 154.668 415.357 1.29229e-12
3 2 1 147.8 419.335 -1.4462e-12
1 1 1 153.224 420.78 0
4 2 1 151.779 426.203 -1.29229e-12
5 2 1 158.647 422.225 1.4462e-12
ITEM: TIMESTEP
43000
ITEM: NUMBER OF ATOMS
5
ITEM: BOX BOUNDS pp pp pp
-1.5625000000000000e+03 1.5625000000000000e+03
-1.5625000000000000e+03 1.5625000000000000e+03
-5.0000000000000003e-02 5.0000000000000003e-02
ITEM: ATOMS id type mol x y z
3 2 1 147.648 417.819 -1.80977e-12
2 2 1 154.158 413.279 7.72945e-13
1 1 1 153.173 418.804 0
4 2 1 152.188 424.329 -7.72945e-13
5 2 1 158.698 419.789 1.80977e-12
ITEM: TIMESTEP
44000
ITEM: NUMBER OF ATOMS
5
ITEM: BOX BOUNDS pp pp pp
-1.5625000000000000e+03 1.5625000000000000e+03
-1.5625000000000000e+03 1.5625000000000000e+03
-5.0000000000000003e-02 5.0000000000000003e-02
ITEM: ATOMS id type mol x y z
2 2 1 158.241 417.835 -5.77606e-13
3 2 1 150.524 419.691 -2.02785e-12
1 1 1 155.31 422.622 0
5 2 1 160.097 425.552 2.02785e-12
4 2 1 152.38 427.408 5.77606e-13
ITEM: TIMESTEP
45000
ITEM: NUMBER OF ATOMS
5
ITEM: BOX BOUNDS pp pp pp
-1.5625000000000000e+03 1.5625000000000000e+03
-1.5625000000000000e+03 1.5625000000000000e+03
-5.0000000000000003e-02 5.0000000000000003e-02
ITEM: ATOMS id type mol x y z
3 2 1 151.144 417.786 -2.55312e-12
2 2 1 158.968 419.122 -1.47268e-12
1 1 1 154.388 422.366 0
5 2 1 157.632 426.946 2.55312e-12
4 2 1 149.808 425.61 1.47268e-12
ITEM: TIMESTEP
46000
ITEM: NUMBER OF ATOMS
5
ITEM: BOX BOUNDS pp pp pp
-1.5625000000000000e+03 1.5625000000000000e+03
-1.5625000000000000e+03 1.5625000000000000e+03
-5.0000000000000003e-02 5.0000000000000003e-02
ITEM: ATOMS id type mol x y z
3 2 1 154.473 413.8 -2.92635e-12
2 2 1 161.555 417.382 -1.65493e-12
4 2 1 150.89 420.882 1.65493e-12
1 1 1 156.223 419.132 0
5 2 1 157.973 424.465 2.92635e-12
ITEM: TIMESTEP
47000
ITEM: NUMBER OF ATOMS
5
ITEM: BOX BOUNDS pp pp pp
-1.5625000000000000e+03 1.5625000000000000e+03
-1.5625000000000000e+03 1.5625000000000000e+03
-5.0000000000000003e-02 5.0000000000000003e-02
ITEM: ATOMS id type mol x y z
3 2 1 151.282 415.775 -3.86254e-12
4 2 1 154.923 422.827 -1.57518e-12
1 1 1 156.629 417.481 0
2 2 1 158.335 412.134 1.57518e-12
5 2 1 161.976 419.187 3.86254e-12
ITEM: TIMESTEP
48000
ITEM: NUMBER OF ATOMS
5
ITEM: BOX BOUNDS pp pp pp
-1.5625000000000000e+03 1.5625000000000000e+03
-1.5625000000000000e+03 1.5625000000000000e+03
-5.0000000000000003e-02 5.0000000000000003e-02
ITEM: ATOMS id type mol x y z
2 2 1 161.637 414.908 8.94136e-13
3 2 1 154.295 417.925 -4.90311e-12
1 1 1 159.474 420.087 0
5 2 1 164.653 422.25 4.90311e-12
4 2 1 157.312 425.266 -8.94136e-13
ITEM: TIMESTEP
49000
ITEM: NUMBER OF ATOMS
5
ITEM: BOX BOUNDS pp pp pp
-1.5625000000000000e+03 1.5625000000000000e+03
-1.5625000000000000e+03 1.5625000000000000e+03
-5.0000000000000003e-02 5.0000000000000003e-02
ITEM: ATOMS id type mol x y z
2 2 1 160.932 412.103 2.62041e-12
3 2 1 155.775 418.136 -4.90124e-12
1 1 1 161.371 417.698 0
4 2 1 161.809 423.293 -2.62041e-12
5 2 1 166.966 417.26 4.90124e-12
ITEM: TIMESTEP
50000
ITEM: NUMBER OF ATOMS
5
ITEM: BOX BOUNDS pp pp pp
-1.5625000000000000e+03 1.5625000000000000e+03
-1.5625000000000000e+03 1.5625000000000000e+03
-5.0000000000000003e-02 5.0000000000000003e-02
ITEM: ATOMS id type mol x y z
2 2 1 164.668 416.282 -9.42426e-13
3 2 1 157.125 418.751 -6.33373e-12
1 1 1 162.131 421.288 0
5 2 1 167.137 423.826 6.33373e-12
4 2 1 159.593 426.294 9.42426e-13
ITEM: TIMESTEP
51000
ITEM: NUMBER OF ATOMS
5
ITEM: BOX BOUNDS pp pp pp
-1.5625000000000000e+03 1.5625000000000000e+03
-1.5625000000000000e+03 1.5625000000000000e+03
-5.0000000000000003e-02 5.0000000000000003e-02
ITEM: ATOMS id type mol x y z
3 2 1 157.943 418.773 -6.93127e-12
2 2 1 164.401 414.159 8.66097e-14
4 2 1 162.557 425.231 -8.66097e-14
1 1 1 163.479 419.695 0
5 2 1 169.015 420.617 6.93127e-12
ITEM: TIMESTEP
52000
ITEM: NUMBER OF ATOMS
5
ITEM: BOX BOUNDS pp pp pp
-1.5625000000000000e+03 1.5625000000000000e+03
-1.5625000000000000e+03 1.5625000000000000e+03
-5.0000000000000003e-02 5.0000000000000003e-02
ITEM: ATOMS id type mol x y z
2 2 1 165.767 414.627 5.76671e-13
3 2 1 160.116 420.201 -7.26992e-12
1 1 1 165.728 420.24 0
5 2 1 171.34 420.278 7.26992e-12
4 2 1 165.689 425.852 -5.76671e-13
ITEM: TIMESTEP
53000
ITEM: NUMBER OF ATOMS
5
ITEM: BOX BOUNDS pp pp pp
-1.5625000000000000e+03 1.5625000000000000e+03
-1.5625000000000000e+03 1.5625000000000000e+03
-5.0000000000000003e-02 5.0000000000000003e-02
ITEM: ATOMS id type mol x y z
2 2 1 164.835 415.525 2.80235e-13
3 2 1 159.577 421.471 -7.47367e-12
1 1 1 165.179 421.126 0
5 2 1 170.781 420.782 7.47367e-12
4 2 1 165.524 426.728 -2.80235e-13
ITEM: TIMESTEP
54000
ITEM: NUMBER OF ATOMS
5
ITEM: BOX BOUNDS pp pp pp
-1.5625000000000000e+03 1.5625000000000000e+03
-1.5625000000000000e+03 1.5625000000000000e+03
-5.0000000000000003e-02 5.0000000000000003e-02
ITEM: ATOMS id type mol x y z
2 2 1 161.333 418.55 1.78843e-12
3 2 1 158.344 425.903 -7.31603e-12
1 1 1 163.515 423.721 0
5 2 1 168.686 421.539 7.31603e-12
4 2 1 165.697 428.892 -1.78843e-12
ITEM: TIMESTEP
55000
ITEM: NUMBER OF ATOMS
5
ITEM: BOX BOUNDS pp pp pp
-1.5625000000000000e+03 1.5625000000000000e+03
-1.5625000000000000e+03 1.5625000000000000e+03
-5.0000000000000003e-02 5.0000000000000003e-02
ITEM: ATOMS id type mol x y z
2 2 1 164.834 417.394 2.56239e-12
3 2 1 163.756 425.258 -6.9752e-12
1 1 1 168.227 421.865 0
5 2 1 172.697 418.472 6.9752e-12
4 2 1 171.62 426.335 -2.56239e-12
ITEM: TIMESTEP
56000
ITEM: NUMBER OF ATOMS
5
ITEM: BOX BOUNDS pp pp pp
-1.5625000000000000e+03 1.5625000000000000e+03
-1.5625000000000000e+03 1.5625000000000000e+03
-5.0000000000000003e-02 5.0000000000000003e-02
ITEM: ATOMS id type mol x y z
2 2 1 160.933 419.155 6.28705e-12
5 2 1 166.156 413.178 1.95413e-12
3 2 1 166.909 424.378 -1.95413e-12
1 1 1 166.533 418.778 0
4 2 1 172.133 418.402 -6.28705e-12
ITEM: TIMESTEP
57000
ITEM: NUMBER OF ATOMS
5
ITEM: BOX BOUNDS pp pp pp
-1.5625000000000000e+03 1.5625000000000000e+03
-1.5625000000000000e+03 1.5625000000000000e+03
-5.0000000000000003e-02 5.0000000000000003e-02
ITEM: ATOMS id type mol x y z
5 2 1 160.907 414.616 -3.11421e-12
2 2 1 160.258 422.526 6.32933e-12
1 1 1 164.538 418.896 0
4 2 1 168.817 415.265 -6.32933e-12
3 2 1 168.168 423.175 3.11421e-12
ITEM: TIMESTEP
58000
ITEM: NUMBER OF ATOMS
5
ITEM: BOX BOUNDS pp pp pp
-1.5625000000000000e+03 1.5625000000000000e+03
-1.5625000000000000e+03 1.5625000000000000e+03
-5.0000000000000003e-02 5.0000000000000003e-02
ITEM: ATOMS id type mol x y z
5 2 1 161.51 411.292 -1.03901e-12
1 1 1 163.055 416.688 0
4 2 1 168.451 415.142 -7.40266e-12
2 2 1 157.66 418.233 7.40266e-12
3 2 1 164.601 422.083 1.03901e-12
ITEM: TIMESTEP
59000
ITEM: NUMBER OF ATOMS
5
ITEM: BOX BOUNDS pp pp pp
-1.5625000000000000e+03 1.5625000000000000e+03
-1.5625000000000000e+03 1.5625000000000000e+03
-5.0000000000000003e-02 5.0000000000000003e-02
ITEM: ATOMS id type mol x y z
5 2 1 164.868 412.216 2.16135e-12
2 2 1 158.003 416.2 6.18717e-12
1 1 1 163.428 417.64 0
4 2 1 168.852 419.08 -6.18717e-12
3 2 1 161.988 423.064 -2.16135e-12
ITEM: TIMESTEP
60000
ITEM: NUMBER OF ATOMS
5
ITEM: BOX BOUNDS pp pp pp
-1.5625000000000000e+03 1.5625000000000000e+03
-1.5625000000000000e+03 1.5625000000000000e+03
-5.0000000000000003e-02 5.0000000000000003e-02
ITEM: ATOMS id type mol x y z
5 2 1 162.787 409.705 -1.80478e-12
2 2 1 159.079 416.723 5.36317e-12
1 1 1 164.442 415.068 0
4 2 1 169.805 413.413 -5.36317e-12
3 2 1 166.097 420.431 1.80478e-12
ITEM: TIMESTEP
61000
ITEM: NUMBER OF ATOMS
5
ITEM: BOX BOUNDS pp pp pp
-1.5625000000000000e+03 1.5625000000000000e+03
-1.5625000000000000e+03 1.5625000000000000e+03
-5.0000000000000003e-02 5.0000000000000003e-02
ITEM: ATOMS id type mol x y z
5 2 1 158.434 413.135 -6.36395e-12
1 1 1 163.997 413.872 0
4 2 1 164.735 408.309 -2.08736e-13
2 2 1 163.26 419.436 2.08736e-13
3 2 1 169.561 414.61 6.36395e-12
ITEM: TIMESTEP
62000
ITEM: NUMBER OF ATOMS
5
ITEM: BOX BOUNDS pp pp pp
-1.5625000000000000e+03 1.5625000000000000e+03
-1.5625000000000000e+03 1.5625000000000000e+03
-5.0000000000000003e-02 5.0000000000000003e-02
ITEM: ATOMS id type mol x y z
4 2 1 165.923 408.315 -2.27273e-12
5 2 1 159 412.198 -6.48202e-12
1 1 1 164.403 413.718 0
3 2 1 169.805 415.238 6.48202e-12
2 2 1 162.883 419.12 2.27273e-12
ITEM: TIMESTEP
63000
ITEM: NUMBER OF ATOMS
5
ITEM: BOX BOUNDS pp pp pp
-1.5625000000000000e+03 1.5625000000000000e+03
-1.5625000000000000e+03 1.5625000000000000e+03
-5.0000000000000003e-02 5.0000000000000003e-02
ITEM: ATOMS id type mol x y z
4 2 1 164.139 408.232 -6.86647e-13
5 2 1 158.755 414.064 -8.01047e-12
1 1 1 164.363 413.84 0
2 2 1 164.588 419.447 6.86647e-13
3 2 1 169.971 413.615 8.01047e-12
ITEM: TIMESTEP
64000
ITEM: NUMBER OF ATOMS
5
ITEM: BOX BOUNDS pp pp pp
-1.5625000000000000e+03 1.5625000000000000e+03
-1.5625000000000000e+03 1.5625000000000000e+03
-5.0000000000000003e-02 5.0000000000000003e-02
ITEM: ATOMS id type mol x y z
4 2 1 160.599 411.487 6.0876e-12
5 2 1 163.762 418.767 -3.87532e-12
1 1 1 165.82 413.546 0
3 2 1 167.878 408.324 3.87532e-12
2 2 1 171.041 415.604 -6.0876e-12
ITEM: TIMESTEP
65000
ITEM: NUMBER OF ATOMS
5
ITEM: BOX BOUNDS pp pp pp
-1.5625000000000000e+03 1.5625000000000000e+03
-1.5625000000000000e+03 1.5625000000000000e+03
-5.0000000000000003e-02 5.0000000000000003e-02
ITEM: ATOMS id type mol x y z
3 2 1 170.14 410.115 3.45006e-12
4 2 1 162.68 412.826 4.70652e-12
1 1 1 167.765 415.2 0
5 2 1 165.39 420.285 -3.45006e-12
2 2 1 172.85 417.575 -4.70652e-12
ITEM: TIMESTEP
66000
ITEM: NUMBER OF ATOMS
5
ITEM: BOX BOUNDS pp pp pp
-1.5625000000000000e+03 1.5625000000000000e+03
-1.5625000000000000e+03 1.5625000000000000e+03
-5.0000000000000003e-02 5.0000000000000003e-02
ITEM: ATOMS id type mol x y z
4 2 1 163.287 415.215 3.98779e-12
3 2 1 169.949 410.901 1.47712e-12
5 2 1 167.601 421.877 -1.47712e-12
1 1 1 168.775 416.389 0
2 2 1 174.263 417.563 -3.98779e-12
ITEM: TIMESTEP
67000
ITEM: NUMBER OF ATOMS
5
ITEM: BOX BOUNDS pp pp pp
-1.5625000000000000e+03 1.5625000000000000e+03
-1.5625000000000000e+03 1.5625000000000000e+03
-5.0000000000000003e-02 5.0000000000000003e-02
ITEM: ATOMS id type mol x y z
3 2 1 170.403 410.61 -4.586e-13
4 2 1 164.875 416.305 3.15534e-12
1 1 1 170.487 416.221 0
2 2 1 176.098 416.138 -3.15534e-12
5 2 1 170.57 421.833 4.586e-13
ITEM: TIMESTEP
68000
ITEM: NUMBER OF ATOMS
5
ITEM: BOX BOUNDS pp pp pp
-1.5625000000000000e+03 1.5625000000000000e+03
-1.5625000000000000e+03 1.5625000000000000e+03
-5.0000000000000003e-02 5.0000000000000003e-02
ITEM: ATOMS id type mol x y z
3 2 1 170.846 409.545 -1.13434e-12
4 2 1 164.248 413.957 2.70266e-12
1 1 1 169.753 415.05 0
2 2 1 175.258 416.143 -2.70266e-12
5 2 1 168.66 420.555 1.13434e-12
ITEM: TIMESTEP
69000
ITEM: NUMBER OF ATOMS
5
ITEM: BOX BOUNDS pp pp pp
-1.5625000000000000e+03 1.5625000000000000e+03
-1.5625000000000000e+03 1.5625000000000000e+03
-5.0000000000000003e-02 5.0000000000000003e-02
ITEM: ATOMS id type mol x y z
4 2 1 167.218 409.499 2.88242e-12
3 2 1 175.014 410.989 1.83812e-14
1 1 1 170.371 414.142 0
5 2 1 165.728 417.295 -1.83812e-14
2 2 1 173.524 418.785 -2.88242e-12
ITEM: TIMESTEP
70000
ITEM: NUMBER OF ATOMS
5
ITEM: BOX BOUNDS pp pp pp
-1.5625000000000000e+03 1.5625000000000000e+03
-1.5625000000000000e+03 1.5625000000000000e+03
-5.0000000000000003e-02 5.0000000000000003e-02
ITEM: ATOMS id type mol x y z
4 2 1 165.235 409.923 2.38862e-12
1 1 1 168.875 414.195 0
3 2 1 173.147 410.555 -7.2559e-13
5 2 1 164.604 417.835 7.2559e-13
2 2 1 172.515 418.467 -2.38862e-12
ITEM: TIMESTEP
71000
ITEM: NUMBER OF ATOMS
5
ITEM: BOX BOUNDS pp pp pp
-1.5625000000000000e+03 1.5625000000000000e+03
-1.5625000000000000e+03 1.5625000000000000e+03
-5.0000000000000003e-02 5.0000000000000003e-02
ITEM: ATOMS id type mol x y z
4 2 1 166.605 406.766 1.5339e-12
1 1 1 166.449 412.376 0
3 2 1 172.06 412.531 4.95358e-14
5 2 1 160.839 412.221 -4.95358e-14
2 2 1 166.294 417.986 -1.5339e-12
ITEM: TIMESTEP
72000
ITEM: NUMBER OF ATOMS
5
ITEM: BOX BOUNDS pp pp pp
-1.5625000000000000e+03 1.5625000000000000e+03
-1.5625000000000000e+03 1.5625000000000000e+03
-5.0000000000000003e-02 5.0000000000000003e-02
ITEM: ATOMS id type mol x y z
4 2 1 163.216 406.733 -4.23702e-14
5 2 1 157.218 411.931 -6.25272e-13
1 1 1 162.816 412.331 0
3 2 1 168.414 412.73 6.25272e-13
2 2 1 162.416 417.929 4.23702e-14
ITEM: TIMESTEP
73000
ITEM: NUMBER OF ATOMS
5
ITEM: BOX BOUNDS pp pp pp
-1.5625000000000000e+03 1.5625000000000000e+03
-1.5625000000000000e+03 1.5625000000000000e+03
-5.0000000000000003e-02 5.0000000000000003e-02
ITEM: ATOMS id type mol x y z
4 2 1 162.821 407.776 -2.27226e-12
5 2 1 156.02 411.868 -1.27983e-12
1 1 1 161.467 413.222 0
3 2 1 166.914 414.576 1.27983e-12
2 2 1 160.113 418.669 2.27226e-12
ITEM: TIMESTEP
74000
ITEM: NUMBER OF ATOMS
5
ITEM: BOX BOUNDS pp pp pp
-1.5625000000000000e+03 1.5625000000000000e+03
-1.5625000000000000e+03 1.5625000000000000e+03
-5.0000000000000003e-02 5.0000000000000003e-02
ITEM: ATOMS id type mol x y z
4 2 1 166.367 408.024 -4.7665e-12