fix fLANG all langevin 1.0 1.0 1.0 100
neigh_modify exclude molecule/intra all
fix rigidNVE linked_vesicle rigid/nve molecule
  1 rigid bodies with 5 atoms
fix NVE synapsin nve 1.0 1.0 1.0

    ##======================================##
    ## Output
    ##======================================##

thermo 1000
thermo_style custom step temp press etotal epair
thermo_modify flush yes
timestep 0.01

    ##======================================##
    ## Equilibration before output
    ##======================================##


    ##======================================##
    ## Run with output
    ##======================================##

fix enforce_2d all enforce2d
dump 2 all custom 1000 Results_eps_attr5_eps_rep1_eps_rep_weak0_range2_attr_with_repFalse_n_synapsin400_n_vesicles1/Movie_2d_eps_attr5_eps_rep1_eps_rep_weak0_range2_attr_with_repFalse_n_synapsin400_n_vesicles1.xyz id type mol x y z
run 1000000
Generated 0 of 3 mixed pair_coeff terms from geometric mixing rule
Neighbor list info ...
  update every 1 steps, delay 1 steps, check yes
  max neighbors/atom: 2000, page size: 100000
  master list distance cutoff = 11.52462
  ghost atom cutoff = 11.52462
  binsize = 5.7623102, bins = 55 55 1
  1 neighbor lists, perpetual/occasional/extra = 1 0 0
  (1) pair cosine/squared, perpetual
      attributes: half, newton on
      pair build: half/bin/newton
      stencil: half/bin/2d
      bin: standard
Per MPI rank memory allocation (min/avg/max) = 8.526 | 8.526 | 8.526 Mbytes
   Step          Temp          Press          TotEng         E_pair    
         0   0.99492997     0.014648881    0.98387519     0            
      1000   1.0532751      0.0042049855   1.0416353      6.3229557e-05
      2000   0.96363506     0.004339512    0.952928       0            
      3000   1.0677677      0.0049649604   1.0559036      0            
      4000   1.0399382      0.0048836847   1.0283834      0            
      5000   1.0028482      0.0042371489   0.9903219     -0.0013835493 
      6000   0.98294163     0.0052526515   0.96285493    -0.0091651276 
      7000   0.95439378     0.003361423    0.93185084    -0.011938571  
      8000   1.0744834      0.0038360936   1.0501991     -0.012345679  
      9000   1.0975854      0.0048687843   1.0755951     -0.0097949005 
     10000   1.0535532      0.0037720645   1.0295013     -0.012345679  
     11000   0.97618442     0.0042488795   0.95356769    -0.011770238  
     12000   0.92749236     0.0039576098   0.90484121    -0.012345679  
     13000   0.96558708     0.0029775659   0.94253831    -0.012320019  
     14000   1.0637974      0.0030107479   1.0397606     -0.012216881  
     15000   0.95743435     0.0040063355   0.93619755    -0.010598634  
     16000   0.95647711     0.0034353572   0.93415645    -0.011693142  
     17000   0.99572834     0.0041512742   0.9736132     -0.011051494  
     18000   1.081353       0.004085671    1.0607694     -0.0085685657 
     19000   0.98571453     0.0041762038   0.951359      -0.023403146  
     20000   0.98670808     0.0029671767   0.95116248    -0.024582183  
     21000   0.9594181      0.0036271672   0.92406654    -0.024691358  
     22000   0.91006008     0.0035674203   0.87683172    -0.023116579  
     23000   0.92374227     0.0030601784   0.8887886     -0.024689867  
     24000   0.95623225     0.0043215815   0.92103405    -0.024573391  
     25000   0.94785153     0.0030471132   0.90446101    -0.032858833  
     26000   0.97757532     0.0034749778   0.93463457    -0.032078803  
     27000   1.0051277      0.00459964     0.96180344    -0.032156201  
     28000   1.0192843      0.0042893532   0.96329443    -0.044664452  
     29000   1.0339237      0.004572079    0.98031778    -0.042117837  
     30000   0.9761712      0.003286352    0.91839266    -0.046932194  
     31000   1.0053697      0.0027275184   0.95321801    -0.040980886  
     32000   1.0375279      0.003345892    0.99350596    -0.032493887  
     33000   1.035364       0.0037927585   0.97648065    -0.047379318  
     34000   0.93582185     0.0040947398   0.90191206    -0.023511765  
     35000   1.0464531      0.0037593457   0.99866675    -0.036159072  
     36000   0.98978742     0.0028059054   0.94832205    -0.030467735  
     37000   1.0181507      0.0039757852   0.98293026    -0.02390764   
     38000   0.99286055     0.0039361428   0.94757949    -0.034249282  
     39000   0.91322893     0.0037743018   0.86777443    -0.035307517  
     40000   1.0299366      0.0048049578   0.98434617    -0.03414665   
     41000   0.93884666     0.004079813    0.89203722    -0.036377805  
     42000   1.0406049      0.0035036209   1.0100099     -0.019032646  
     43000   0.98599984     0.0049431674   0.95161308    -0.023431201  
     44000   1.0409704      0.0032357402   0.99450735    -0.034896673  
     45000   1.0118235      0.0034689445   0.96901719    -0.031563872  
     46000   1.0241742      0.0042529004   0.98742235    -0.025372138  
     47000   0.99364648     0.0053909334   0.94674205    -0.035863911  
     48000   1.0705548      0.0038513525   1.0147767     -0.043883043  
     49000   1.007078       0.0045303766   0.94136936    -0.054518835  
     50000   0.95199198     0.0040265874   0.89821304    -0.043201246  
     51000   1.0179597      0.0027426006   0.95805714    -0.048591936  
     52000   1.1100108      0.0052801648   1.0669179     -0.030759387  
     53000   1.0339741      0.0051626709   0.98012026    -0.042365283  
     54000   1.0484115      0.0034636384   1.0009534     -0.035809035  
     55000   0.98341183     0.0043127996   0.92923343    -0.043251607  
     56000   1.0624645      0.0035197963   1.0161252     -0.034534131  
     57000   1.0103676      0.0043616823   0.95382413    -0.045317176  
     58000   0.97588006     0.0039169958   0.9183366     -0.046700351  
     59000   1.009713       0.0033602918   0.9514764     -0.047017525  
     60000   1.0041439      0.0039694378   0.95275416    -0.040232541  
     61000   1.0588972      0.0040195563   1.0013186     -0.045813067  
     62000   0.97550777     0.0045236868   0.89737617    -0.067292619  
     63000   1.0585482      0.0044328121   0.99308806    -0.053698523  
     64000   0.98314159     0.0040971848   0.89661603    -0.075601757  
     65000   1.0552247      0.0044431225   0.97228349    -0.071216527  
     66000   1.0381058      0.0036079334   0.96362596    -0.062945316  
     67000   0.99971969     0.0047863188   0.92989551    -0.058716187  
     68000   1.0039396      0.0046775264   0.93638444    -0.056400288  
     69000   0.99497016     0.0056071943   0.93132166    -0.052593273  
     70000   1.0350916      0.0044534866   0.98147411    -0.042116432  
     71000   0.96853268     0.0049683383   0.9121044     -0.045666803  
     72000   1.0515877      0.0043512146   1.0089207     -0.030982694  
     73000   0.9482461      0.0047572762   0.90630998    -0.03140005   
     74000   0.92070879     0.0040004985   0.87489473    -0.035583957  
     75000   1.0263174      0.0044280916   0.98364146    -0.031272441  
     76000   1.056353       0.0044647121   1.0115495     -0.033066295  
     77000   1.0440741      0.0036730108   0.99543628    -0.037037037  
     78000   0.99763537     0.0050882262   0.95923096    -0.02731957   
     79000   1.0101272      0.0038547256   0.96472528    -0.034178292  
     80000   1.0986282      0.0059853798   1.0517626     -0.034658698  
     81000   0.95789552     0.0041174177   0.91904071    -0.028211527  
     82000   1.0124261      0.0037678825   0.97159783    -0.029579054  
     83000   0.99749045     0.00469921     0.95230815    -0.034099072  
     84000   0.94275726     0.0037941508   0.89290919    -0.039372997  
     85000   0.96776082     0.0038450956   0.90923062    -0.047777308  
     86000   1.0235055      0.0040065441   0.97554494    -0.03658832   
     87000   0.95586003     0.0035453552   0.91345535    -0.031784015  
     88000   1.0011973      0.0047372049   0.94473532    -0.04533757   
     89000   0.97135141     0.0032398379   0.911306      -0.049252614  
     90000   0.98663302     0.0042976884   0.92768646    -0.047983969  
     91000   0.98418868     0.0036954624   0.91511177    -0.058141477  
     92000   1.0064469      0.0050399745   0.93000848    -0.06525565   
     93000   1.0507928      0.004601153    0.96697183    -0.072145488  
     94000   1.0042057      0.0032832855   0.92731421    -0.065733673  
     95000   1.0061225      0.0033977452   0.93954119    -0.055402161  
     96000   1.0531639      0.0039828434   0.99275422    -0.048707867  
     97000   0.95020962     0.0026816713   0.87909551    -0.06055622   
     98000   0.99406127     0.0039730938   0.91436393    -0.068652214  
     99000   0.97462077     0.0027613185   0.89056568    -0.073225967  
    100000   0.97342346     0.003857646    0.90309943    -0.059508211  
    101000   1.1103763      0.0048563173   1.0420444     -0.055994367  
    102000   0.97714892     0.004428148    0.91761663    -0.048675083  
    103000   1.0759406      0.0045656284   1.0101478     -0.053837852  
    104000   0.96698775     0.0032458693   0.88577334    -0.0704701    
    105000   0.99917046     0.0041535716   0.93319416    -0.054874406  
    106000   0.9521809      0.0031360564   0.89305943    -0.048541689  
    107000   1.0130044      0.003545117    0.95958711    -0.042161676  
    108000   0.95461379     0.0046225169   0.91968169    -0.024325287  
    109000   0.97684152     0.0042266438   0.91245835    -0.053529382  
    110000   1.0583933      0.0051692161   0.99230382    -0.054329556  
    111000   1.0383543      0.0041410745   0.97695622    -0.049860798  
    112000   1.0092757      0.004296329    0.97012507    -0.027936489  
    113000   1.0191887      0.0037884004   0.96610679    -0.041757625  
    114000   1.009428       0.0032905893   0.93850811    -0.059704025  
    115000   1.1284713      0.0047876855   1.0646874     -0.051245384  
    116000   1.0283385      0.0042301397   0.94181578    -0.07509673   
    117000   1.0289178      0.0039679937   0.94802543    -0.06945997   
    118000   1.0797563      0.0037864381   1.0075283     -0.060230716  
    119000   1.0472307      0.0039406984   0.9665263     -0.069068523  
    120000   1.0385457      0.0040528665   0.93929022    -0.087716036  
    121000   1.0838122      0.0040410107   1.0076058     -0.064164072  
    122000   0.97218113     0.0030935508   0.91119734    -0.050181776  
    123000   1.0319284      0.0038521339   0.96121496    -0.059247571  
    124000   0.9596396      0.0031968933   0.87939098    -0.069585957  
    125000   0.99061242     0.0045380279   0.91444681    -0.065158809  
    126000   1.0094702      0.0043241985   0.93818962    -0.060064219  
    127000   0.98800588     0.0027835459   0.90898277    -0.068045271  
    128000   1.0608615      0.0049435428   0.9774993     -0.071574881  
    129000   1.013996       0.0041377994   0.93754211    -0.065187234  
    130000   0.99136679     0.0041234139   0.90173925    -0.078612358  
    131000   1.0084442      0.0046901983   0.92313132    -0.074107958  
    132000   0.93279429     0.0035433624   0.87233272    -0.050097193  
    133000   1.0056927      0.0027431629   0.92667781    -0.067840556  
    134000   1.0710475      0.0049470505   0.98873661    -0.070410322  
    135000   1.0452838      0.004136689    0.98533238    -0.048337156  
    136000   0.8994131      0.0028597842   0.8216198     -0.067799825  
    137000   0.9865256      0.0044910922   0.90707155    -0.068492657  
    138000   0.96816217     0.0047277247   0.89084343    -0.066561378  
    139000   0.96131503     0.0027934029   0.88039993    -0.070233821  
    140000   0.9768192      0.0021861222   0.8832533     -0.082712357  
    141000   0.99535724     0.0040751774   0.89665087    -0.087646841  
    142000   1.0462282      0.0045632692   0.9604938     -0.074109609  
    143000   0.92461182     0.0034492689   0.8307085     -0.083629858  
    144000   1.0383738      0.0045180593   0.95731929    -0.069517055  
    145000   0.90099792     0.0024394552   0.8288423     -0.062144535  
    146000   0.96240489     0.003356209    0.87555941    -0.076152097  
    147000   1.0331054      0.0044747849   0.94903106    -0.072595402  
    148000   0.97877541     0.0042380728   0.90615189    -0.06174824   
    149000   0.92597975     0.0042607813   0.84589118    -0.069799909  
    150000   0.99904189     0.0050326267   0.91506199    -0.072879443  
    151000   0.97965633     0.0038424894   0.89021965    -0.078551603  
    152000   1.0606396      0.0048345456   0.96612862    -0.082726112  
    153000   0.99011758     0.0038837506   0.8894223     -0.089693974  
    154000   1.0362765      0.0035118779   0.94104238    -0.083719909  
    155000   1.1026518      0.0050680347   1.0194591     -0.070941001  
    156000   1.0701415      0.0037349244   0.97720078    -0.081050244  
    157000   0.95254393     0.0035825561   0.8473153     -0.094644805  
    158000   1.0256292      0.004566229    0.91550203    -0.098731251  
    159000   0.97558125     0.0047217676   0.88388269    -0.080858773  
    160000   1.0034823      0.0042116058   0.90333271    -0.088999834  
    161000   0.95746003     0.0049045347   0.8446729     -0.10214868   
    162000   1.0655794      0.004393096    0.96910523    -0.084634347  
    163000   1.0248787      0.0035629164   0.94273218    -0.070758946  
    164000   1.0268997      0.0042012975   0.93714119    -0.078348525  
    165000   1.0493758      0.0042217857   0.94002884    -0.097687188  
    166000   0.94155453     0.0035225405   0.81885269    -0.11224012   
    167000   1.0131922      0.0032802263   0.87762778    -0.12430675   
    168000   1.0759496      0.0038116226   0.95015886    -0.11383573   
    169000   1.0280725      0.0042621021   0.89773582    -0.11891364   
    170000   0.99588094     0.003759798    0.87362945    -0.11118615   
    171000   1.0035523      0.0040130903   0.88586952    -0.10653218   
    172000   1.0375793      0.0042649296   0.91896221    -0.10708841   
    173000   1.0284297      0.0039091168   0.94081388    -0.076188832  
    174000   1.0633483      0.0040159796   0.97080413    -0.080729166  
    175000   1.0074549      0.0041511715   0.91977787    -0.076483063  
    176000   0.95357887     0.004207185    0.85383679    -0.089146753  
    177000   0.9879848      0.002979225    0.89052314    -0.086484056  
    178000   0.96624947     0.0028760594   0.86759169    -0.087921675  
    179000   1.0194169      0.0033936731   0.93107144    -0.077018641  
    180000   0.96784273     0.0044004246   0.87556792    -0.081521008  
    181000   0.98279874     0.0038709307   0.90493971    -0.066939052  
    182000   1.0010869      0.0038746622   0.89752375    -0.092440005  
    183000   1.0414963      0.0034164188   0.93633806    -0.093586057  
    184000   1.0431772      0.004307999    0.96101347    -0.070572843  
    185000   1.0407144      0.0039127569   0.93809141    -0.091059522  
    186000   1.0058227      0.0036516152   0.90142219    -0.093224698  
    187000   0.97870757     0.0034276715   0.87972503    -0.08810801   
    188000   1.0390184      0.0036935185   0.92956299    -0.097910773  
    189000   0.92102292     0.0041473407   0.82607882    -0.084710514  
    190000   1.0711678      0.0046488161   0.97020893    -0.089056956  
    191000   1.040101       0.0036860711   0.9447769     -0.083767415  
    192000   1.0385114      0.0048774229   0.96000795    -0.066964413  
    193000   1.010743       0.0035233548   0.90563467    -0.093877856  
    194000   0.9913779      0.0032491518   0.8804819     -0.099880682  
    195000   1.0544994      0.0042189937   0.97045248    -0.072330218  
    196000   1.0542971      0.0046519862   0.96196404    -0.080618607  
    197000   1.0028701      0.0040782535   0.89958785    -0.092139205  
    198000   0.92393621     0.003656061    0.81894179    -0.094728461  
    199000   0.95193476     0.0034954522   0.82812045    -0.11323726   
    200000   1.0091982      0.004448324    0.87917381    -0.11881112   
    201000   0.99866481     0.0038041419   0.86865324    -0.11891529   
    202000   1.0195904      0.0044587925   0.89800924    -0.11025241   
    203000   0.94553548     0.0054134517   0.83601141    -0.099018121  
    204000   0.96460476     0.0039024993   0.8766255     -0.07726143   
    205000   0.97595625     0.0044877262   0.87998249    -0.085129808  
    206000   0.94086606     0.0041202908   0.83957464    -0.090837346  
    207000   1.0359169      0.0037183587   0.91055027    -0.11385646   
    208000   0.97304455     0.0043850725   0.86753389    -0.094699056  
    209000   1.027833       0.0036105927   0.8798969     -0.13651577   
    210000   1.0181225      0.004208341    0.90775028    -0.099059776  
    211000   1.0569766      0.0033470427   0.94682135    -0.098411031  
    212000   0.97648363     0.0043738436   0.85671305    -0.10892076   
    213000   0.96198399     0.0024919752   0.86772272    -0.083572555  
    214000   1.0222228      0.0039871393   0.92107523    -0.089789551  
    215000   1.0099371      0.0040596428   0.90262888    -0.096086711  
    216000   0.96754501     0.0042642132   0.87337508    -0.083419431  
    217000   0.95289156     0.0043707038   0.85977989    -0.082523983  
    218000   1.0158919      0.0034967315   0.91810694    -0.086497314  
    219000   1.0020784      0.0043968813   0.89842801    -0.092516152  
    220000   1.0493565      0.0052408494   0.95486683    -0.082830189  
    221000   1.103085       0.0050439277   1.0236584     -0.067170133  
    222000   1.0015899      0.0032595443   0.92577217    -0.064688993  
    223000   0.96731004     0.0039202306   0.88912818    -0.067433974  
    224000   1.0017862      0.004001826    0.91278747    -0.077867787  
    225000   1.013781       0.0032637794   0.92066237    -0.081854388  
    226000   0.9618619      0.0027904784   0.86413092    -0.087043621  
    227000   1.0656081      0.0043496821   0.97232231    -0.081445653  
    228000   1.0293088      0.004568722    0.95512325    -0.062748737  
    229000   1.0786356      0.0039037031   0.98833479    -0.078315976  
    230000   0.98700899     0.0047337016   0.87844741    -0.097594813  
    231000   1.0248775      0.0036226746   0.92709216    -0.086397787  
    232000   1.0547604      0.0043948451   0.94790675    -0.095134051  
    233000   0.99259688     0.0050442181   0.89494916    -0.086618866  
    234000   0.93697733     0.0038347122   0.85458453    -0.071981937  
    235000   0.9990104      0.0040730507   0.89498941    -0.092920872  
    236000   1.0875856      0.0041656048   0.98160125    -0.09390002   
    237000   1.0693622      0.0036583539   0.95892385    -0.098556574  
    238000   1.0019549      0.004945129    0.89755793    -0.093264152  
    239000   0.94362064     0.0029565439   0.83116123    -0.10197474   
    240000   0.99546903     0.0047663992   0.90518813    -0.079220138  
    241000   0.91772132     0.0035508596   0.82667991    -0.080844511  
    242000   0.97921824     0.0040316105   0.88927922    -0.079058825  
    243000   0.95382847     0.0038449554   0.84260935    -0.10062102   
    244000   0.9287053      0.0040560085   0.80855768    -0.10982867   
    245000   0.9371857      0.0026610135   0.83259364    -0.094178885  
    246000   0.9591272      0.0036099001   0.85464025    -0.093829984  
    247000   1.1182415      0.0054166865   0.99870315    -0.10711342   
    248000   0.98232295     0.0028832593   0.87425253    -0.097155713  
    249000   1.0891829      0.0035603827   0.97723416    -0.099846698  
    250000   0.96102005     0.0038925408   0.84653834    -0.10380371   
    251000   0.93373024     0.0039284285   0.82709039    -0.09626507   
    252000   0.96121171     0.0034671806   0.85877931    -0.091752268  
    253000   1.0347281      0.004464042    0.90738608    -0.11584502   
    254000   1.0304919      0.0036664522   0.89646345    -0.12257859   
    255000   0.9435854      0.0028004199   0.83950625    -0.093594865  
    256000   0.97486045     0.0047380131   0.86583016    -0.098198507  
    257000   0.99572044     0.0039721563   0.90496427    -0.079692605  
    258000   1.003219       0.0038293975   0.89523171    -0.096840396  
    259000   1.0172016      0.0043689419   0.91240146    -0.093497853  
    260000   0.91767067     0.0031221771   0.8186563     -0.088818023  
    261000   1.0116388      0.0036365471   0.92635824    -0.07404018   
    262000   0.95388324     0.0047443941   0.88423683    -0.05904771   
    263000   0.94494604     0.0034878277   0.85374221    -0.080704436  
    264000   0.99216983     0.0029027388   0.8925992     -0.088546513  
    265000   1.0380387      0.0034202572   0.9414628     -0.08504209   
    266000   0.99017592     0.0043914827   0.88652256    -0.092651409  
    267000   0.93653853     0.0038884264   0.82113378    -0.10499877   
    268000   0.99512375     0.0044364685   0.90615721    -0.077909603  
    269000   0.96623553     0.0035515766   0.8774132     -0.07808638   
    270000   1.0571602      0.0032924344   0.97797659    -0.067437362  
    271000   1.0197396      0.0042640362   0.91298067    -0.095428456  
    272000   0.95681339     0.0039805033   0.84232344    -0.10385869   
    273000   1.0012749      0.0044707958   0.90874651    -0.081403109  
    274000   0.98416541     0.0037260845   0.88471307    -0.088517174  
    275000   0.99011801     0.0039107681   0.90631017    -0.072806521  
    276000   1.0217794      0.0033252188   0.94568353    -0.064742719  
    277000   0.89503302     0.0024710879   0.79660156    -0.088486642  
    278000   1.0240557      0.00393401     0.92809042    -0.084586885  
    279000   0.9423288      0.0034658967   0.86045575    -0.071402736  
    280000   1.0015807      0.0028663699   0.90735266    -0.083099403  
    281000   1.0621049      0.0040504629   0.96441003    -0.085893708  
    282000   1.0406739      0.002862381    0.94961365    -0.079497193  
    283000   0.91835143     0.0036034549   0.83100227    -0.077145257  
    284000   1.013036       0.0033437564   0.93497211    -0.066807971  
    285000   1.0424236      0.003470565    0.95241071    -0.078430423  
    286000   1.0265782      0.003426556    0.93930473    -0.075867064  
    287000   0.99209171     0.0046477237   0.91587408    -0.065194387  
    288000   0.94220056     0.0048498112   0.86174567    -0.06998599   
    289000   0.97101307     0.0043480524   0.89038355    -0.069840484  
    290000   0.99696473     0.0037061188   0.93400757    -0.051879777  
    291000   0.96329769     0.004483733    0.90270245    -0.049891937  
    292000   0.99175002     0.0038665021   0.93326502    -0.047465552  
    293000   0.99022683     0.0033119932   0.92242786    -0.056796455  
    294000   0.95434901     0.0035268973   0.87492815    -0.068816981  
    295000   1.0273697      0.0046644274   0.93957384    -0.076380649  
    296000   0.9077384      0.0047063159   0.82211095    -0.075541468  
    297000   1.036783       0.0035552918   0.94790597    -0.077357269  
    298000   1.0664176      0.0049903813   0.96884843    -0.085720107  
    299000   0.97360893     0.0036710311   0.8568346     -0.10595646   
    300000   0.98266144     0.0040598259   0.90626765    -0.065475335  
    301000   1.0138538      0.0046421368   0.91608152    -0.086507274  
    302000   0.97205596     0.0041498513   0.90047416    -0.060781186  
    303000   0.99866528     0.0037350465   0.89647491    -0.091094083  
    304000   0.98004766     0.0042461674   0.8746121     -0.094546146  
    305000   1.0107138      0.0041436849   0.90910283    -0.090380846  
    306000   0.99074582     0.0033837933   0.90450328    -0.075234257  
    307000   1.0400642      0.0036894338   0.95366362    -0.074844348  
    308000   0.99863172     0.0042138687   0.89894299    -0.08859282   
    309000   0.91116646     0.0042138488   0.8201997     -0.080842682  
    310000   1.0025287      0.0047928798   0.9231863     -0.068203155  
    311000   1.0076715      0.0040832028   0.91863829    -0.077836852  
    312000   1.016155       0.0043187237   0.91813608    -0.086728325  
    313000   1.0039132      0.0035502231   0.92165241    -0.071106187  
    314000   0.93773813     0.0037934992   0.84968031    -0.077638509  
    315000   1.0469655      0.0035902743   0.95412389    -0.081208628  
    316000   0.95340674     0.0037979495   0.86688169    -0.075931642  
    317000   0.93061795     0.0032581377   0.85533421    -0.064943542  
    318000   1.0541914      0.0045751946   0.96384125    -0.078636865  
    319000   1.0517663      0.0035916535   0.96223886    -0.077841145  
    320000   0.99294791     0.0040575914   0.88640986    -0.095505297  
    321000   0.91877003     0.0033137039   0.8211755     -0.087385973  
    322000   1.0200721      0.003425773    0.92338482    -0.08535318   
    323000   1.0990508      0.0047778855   0.99414561    -0.092693522  
    324000   0.93038019     0.0031608518   0.82624607    -0.093796564  
    325000   1.0057198      0.0040298154   0.90111818    -0.093426939  
    326000   1.0905916      0.003589643    0.99814877    -0.080325163  
    327000   1.030445       0.0038992523   0.91855177    -0.10044382   
    328000   1.0307532      0.0034421483   0.9141341     -0.10516633   
    329000   0.98115408     0.0032554158   0.86765198    -0.10260039   
    330000   1.0565919      0.00424987     0.95509381    -0.089758212  
    331000   1.0193923      0.0034168655   0.90383155    -0.1042342    
    332000   1.0583374      0.0043076346   0.94628314    -0.10029496   
    333000   1.0053855      0.004058941    0.91813231    -0.076082228  
    334000   1.0034673      0.0035274303   0.9406569     -0.051660751  
    335000   0.94151037     0.0041745864   0.85654759    -0.074501557  
    336000   1.0272862      0.0046417031   0.95450285    -0.061369093  
    337000   1.0552184      0.0044937685   1.0011753     -0.042318411  
    338000   1.0479077      0.0051826935   0.95505342    -0.081210887  
    339000   1.071101       0.0048061716   0.98495012    -0.074249787  
    340000   1.0379766      0.0034131302   0.95703728    -0.069406262  
    341000   0.96150527     0.00336806     0.87511621    -0.075705662  
    342000   0.94653972     0.003501906    0.86630161    -0.069721004  
    343000   1.0528434      0.0048942931   0.96122585    -0.079919246  
    344000   1.1163303      0.0051652269   1.0464659     -0.057460774  
    345000   0.95109882     0.0039385197   0.87230973    -0.068221329  
    346000   1.0011649      0.0036660541   0.91007111    -0.079969778  
    347000   1.1127346      0.0044200613   1.0213619     -0.079008974  
    348000   0.98416709     0.0030848778   0.9082564     -0.064975504  
    349000   1.0093785      0.00519862     0.91925352    -0.078909631  
    350000   0.90570613     0.0041019794   0.82032838    -0.075314349  
    351000   0.97667519     0.0035405033   0.88855923    -0.077264009  
    352000   1.0871649      0.0049774888   0.98508068    -0.090004581  
    353000   1.0070007      0.0038579844   0.9081417     -0.087670073  
    354000   0.91792427     0.004507376    0.83537691    -0.0723482    
    355000   0.98230753     0.003628693    0.88865135    -0.082741651  
    356000   1.0190971      0.0036025887   0.93338408    -0.074389725  
    357000   0.98884791     0.004817916    0.88884268    -0.089018032  
    358000   0.96306352     0.0037876826   0.86587647    -0.086486341  
    359000   0.9988583      0.0040165338   0.89295344    -0.094806441  
    360000   0.97752201     0.0041232799   0.88450984    -0.082150816  
    361000   1.0510526      0.003940202    0.97052912    -0.06884509   
    362000   1.0408142      0.0040542984   0.96897153    -0.060278106  
    363000   1.0029338      0.0045965183   0.92883784    -0.062952268  
    364000   0.95199452     0.0040665948   0.87414011    -0.067276693  
    365000   0.98978144     0.0042126892   0.91408093    -0.064702936  
    366000   1.0199623      0.0044963471   0.95166396    -0.056965421  
    367000   0.99664983     0.004230548    0.91247942    -0.073096523  
    368000   0.94907735     0.0027770988   0.87971363    -0.058818412  
    369000   0.89074775     0.0033772019   0.8091623     -0.071688246  
    370000   0.98249243     0.0047570793   0.8955656     -0.076010239  
    371000   1.0436522      0.0050577661   0.96618455    -0.065871552  
    372000   1.0442789      0.0043439314   0.95987237    -0.072803427  
    373000   0.98076491     0.003949066    0.91189823    -0.05796929   
    374000   0.99045693     0.004379225    0.89294406    -0.08650779   
    375000   1.0240726      0.0049059108   0.92899904    -0.083695004  
    376000   0.98226388     0.004413719    0.86966082    -0.10168901   
    377000   0.95589127     0.0038409997   0.86242814    -0.08284212   
    378000   1.0376158      0.0034541489   0.93106255    -0.095024187  
    379000   1.0004867      0.0048922778   0.89748966    -0.091880527  
    380000   0.94947325     0.0040437893   0.85291172    -0.086011829  
    381000   1.0291757      0.0028885657   0.92321725    -0.094523141  
    382000   0.99572596     0.0039683875   0.88553358    -0.09912876   
    383000   1.0465924      0.0034943187   0.94949347    -0.085470133  
    384000   1.029707       0.0049757663   0.93642148    -0.081844363  
    385000   0.99281854     0.0055110749   0.89465701    -0.087130213  
    386000   1.0642018      0.0041921205   0.9585684     -0.093808963  
    387000   0.9470167      0.0035414023   0.831241      -0.10525329   
    388000   0.99018198     0.0033811014   0.86691619    -0.11226376   
    389000   1.0104622      0.0037023623   0.88421505    -0.11501982   
    390000   0.9892509      0.0029956892   0.87295493    -0.10530429   
    391000   1.1032231      0.0048933456   0.97134708    -0.11961803   
    392000   1.0007216      0.0040741602   0.89259436    -0.097008091  
    393000   1.0242886      0.0048740256   0.92021698    -0.09269067   
    394000   1.0546589      0.0048425038   0.94377859    -0.09916193   
    395000   1.0251668      0.0034864408   0.90683528    -0.10694074   
    396000   0.94607909     0.0033476764   0.83916174    -0.096405353  
    397000   0.99704694     0.0039600046   0.89680991    -0.089158734  
    398000   0.9742341      0.0043615777   0.85065879    -0.11275049   
    399000   0.92646465     0.0047079187   0.82280707    -0.093363524  
    400000   1.0636718      0.0045271373   0.95626593    -0.095587278  
    401000   1.0426322      0.004617624    0.94332934    -0.087718089  
    402000   0.94230113     0.0042314775   0.81253746    -0.11929365   
    403000   1.0506982      0.0043013533   0.91319614    -0.12582766   
    404000   0.99183426     0.0044212897   0.8569477     -0.12386618   
    405000   1.0584392      0.0052524536   0.93722133    -0.10945744   
    406000   1.0198431      0.0039999914   0.91352387    -0.094987619  
    407000   1.0120176      0.0043293258   0.88960015    -0.11117282   
    408000   1.0256098      0.0040875972   0.89411165    -0.1201025    
    409000   1.0834374      0.0040305686   0.96547952    -0.10591968   
    410000   0.96833304     0.0029996576   0.85873102    -0.098842765  
    411000   0.94422868     0.0037669214   0.81442675    -0.1193105    
    412000   0.96409711     0.0040831018   0.84518164    -0.10820328   
    413000   1.05391        0.0044098893   0.94311703    -0.09908282   
    414000   0.97332306     0.0040498423   0.85789374    -0.10461461   
    415000   0.96954029     0.0045975626   0.84908901    -0.10967861   
    416000   1.0622993      0.0050145316   0.93707501    -0.11342093   
    417000   0.95834001     0.0038578623   0.83397632    -0.11371547   
    418000   1.0464822      0.0048827681   0.91151316    -0.12334146   
    419000   0.91227843     0.0038191591   0.77839429    -0.12374771   
    420000   1.0040147      0.0034289696   0.87794197    -0.11491703   
    421000   1.0558514      0.0029776593   0.95090477    -0.093214979  
    422000   1.0127878      0.0039551144   0.91171956    -0.089815015  
    423000   0.98160209     0.0042043544   0.86988735    -0.10080805   
    424000   0.98717882     0.0035663529   0.88326438    -0.092945788  
    425000   1.0322445      0.0046731606   0.93138764    -0.089387479  
    426000   1.0175717      0.0033177071   0.90205428    -0.10421102   
    427000   0.93735443     0.0044986715   0.83494014    -0.091999239  
    428000   1.0488176      0.0048330304   0.9457627     -0.091401349  
    429000   0.90002528     0.0030311363   0.83091015    -0.059114849  
    430000   0.9987733      0.0037972159   0.89084373    -0.096832088  
    431000   0.96114571     0.0031517859   0.83820205    -0.11226426   
    432000   1.0616386      0.0041203789   0.92239482    -0.12744779   
    433000   0.91320081     0.003768741    0.79106478    -0.11198935   
    434000   0.95977418     0.0042603043   0.82371239    -0.12539763   
    435000   1.0571888      0.0053631071   0.92292466    -0.1225176    
    436000   0.97835683     0.0042531896   0.85731547    -0.11017073   
    437000   1.0567028      0.0038861909   0.93752509    -0.10743661   
    438000   0.90121882     0.0034172048   0.77692287    -0.11428241   
    439000   1.0506413      0.0048051578   0.90609292    -0.13287458   
    440000   1.0040836      0.0047322968   0.85580106    -0.13712609   
    441000   1.0110685      0.0032797252   0.8767819     -0.12305252   
    442000   0.9480908      0.0040406996   0.8565015     -0.081054955  
    443000   1.0466194      0.0043350747   0.93410272    -0.10088756   
    444000   0.97698589     0.0029476415   0.86879277    -0.097337717  
    445000   1.0227561      0.0038592538   0.90175088    -0.10964122   
    446000   0.97652186     0.0043973418   0.87287875    -0.092792861  
    447000   1.0774857      0.0040386552   0.97932155    -0.086192089  
    448000   0.94579972     0.0033475589   0.83308703    -0.10220381   
    449000   0.90159464     0.0038238625   0.79221151    -0.099365411  
    450000   0.97633525     0.0044559582   0.85981703    -0.10567006   
    451000   0.93250836     0.0035042031   0.82801192    -0.09413524   
    452000   1.0369494      0.0043681102   0.89875714    -0.12667058   
    453000   1.0037594      0.0038237417   0.89022487    -0.10238165   
    454000   0.99871981     0.0032107776   0.87400077    -0.11362216   
    455000   0.96275394     0.0041938559   0.81928286    -0.13277381   
    456000   0.98452694     0.0040344541   0.86277112    -0.11081663   
    457000   1.1048154      0.0043025693   0.98024152    -0.11229816   
    458000   1.0480777      0.0034597906   0.91958006    -0.11685233   
    459000   0.99657352     0.0040734702   0.85457432    -0.13092616   
    460000   0.93538481     0.0040105095   0.83154503    -0.093446616  
    461000   1.0810827      0.0049151867   0.98904315    -0.080027483  
    462000   0.96228863     0.0040206712   0.83635516    -0.11524137   
    463000   0.97394514     0.0041120898   0.87509484    -0.088028683  
    464000   0.89777791     0.0038181736   0.77723059    -0.110572     
    465000   1.0039683      0.0045365072   0.89662646    -0.096186678  
    466000   0.94521185     0.003335059    0.81239601    -0.12231348   
    467000   0.98377686     0.005046478    0.84871191    -0.1241341    
    468000   1.0107745      0.0040455346   0.8836195     -0.11592422   
    469000   1.0596508      0.0034232204   0.94972514    -0.098151777  
    470000   0.98434918     0.0036499732   0.8696302     -0.10378178   
    471000   0.99492764     0.0037873279   0.88908265    -0.094790242  
    472000   1.0308441      0.0042908478   0.93575542    -0.083634872  
    473000   1.0491409      0.0032707354   0.94273015    -0.094753652  
    474000   1.0672681      0.0046880066   0.95065931    -0.1047503    
    475000   1.0263923      0.0049095763   0.8943141     -0.12067381   
    476000   1.0308794      0.003826919    0.90573441    -0.11369078   
    477000   1.0431702      0.0040186164   0.93149445    -0.10008494   
    478000   0.91685856     0.0037141266   0.78464281    -0.12202843   
    479000   1.0095556      0.0040386445   0.84771371    -0.15062462   
    480000   1.0203017      0.0041212582   0.86144354    -0.14752152   
    481000   1.0310024      0.0039395698   0.90439325    -0.11515352   
    482000   1.1038023      0.005146442    0.99901352    -0.09252427   
    483000   0.95231709     0.0035630805   0.8289506     -0.11278519   
    484000   0.99353331     0.004090485    0.88071894    -0.10177512   
    485000   1.0130576      0.0038179143   0.85162654    -0.15017487   
    486000   0.98420687     0.004768266    0.83947661    -0.13379463   
    487000   0.95126765     0.0028358064   0.84302058    -0.097677428  
    488000   0.96849525     0.0028448227   0.85587653    -0.10185767   
    489000   0.980045       0.0035173782   0.86084539    -0.10831022   
    490000   1.0564667      0.0043590089   0.93579872    -0.10892944   
    491000   1.0087463      0.0046694902   0.86975607    -0.12778198   
    492000   0.97749098     0.0038586179   0.8417676     -0.12486236   
    493000   0.99639441     0.0039637067   0.83511712    -0.15020624   
    494000   0.9977377      0.0037175971   0.8206509     -0.16600083   
    495000   0.9539754      0.0045026954   0.81892502    -0.12445065   
    496000   0.93441523     0.0038474107   0.78287567    -0.14115717   
    497000   1.0470104      0.003910328    0.90398779    -0.13138916   
    498000   1.0093957      0.0041088532   0.87986267    -0.11831754   
    499000   1.027263       0.0033365629   0.88436936    -0.13147957   
    500000   0.99285344     0.0043537341   0.84055849    -0.14126325   
    501000   1.0528645      0.0043078649   0.92425893    -0.1169071    
    502000   1.0241273      0.004949541    0.8768188     -0.13592928   
    503000   1.0028803      0.0042821051   0.83747374    -0.15426345   
    504000   1.0143629      0.003506509    0.87340143    -0.12969081   
    505000   0.97096863     0.0048991232   0.823113      -0.13706709   
    506000   1.0031983      0.0043378039   0.85856344    -0.13348826   
    507000   1.0262514      0.0044337645   0.87021113    -0.14463745   
    508000   0.96483123     0.0032932099   0.83344393    -0.12066696   
    509000   1.024919       0.0040789313   0.86398622    -0.14954484   
    510000   1.0312265      0.0036757217   0.9171546     -0.10261388   
    511000   1.0135412      0.0041500229   0.87306793    -0.1292117    
    512000   1.0710703      0.0046298609   0.92174689    -0.1374226    
    513000   1.0774681      0.0046661308   0.93792168    -0.12757452   
    514000   1.0829529      0.0050914586   0.94720515    -0.12371493   
    515000   0.98437205     0.0035538729   0.85455332    -0.11888126   
    516000   1.0471801      0.0038886386   0.92920723    -0.10633751   
    517000   1.0242112      0.0039292692   0.90481198    -0.10801908   
    518000   1.0113241      0.0040683583   0.86519689    -0.1348903    
    519000   0.9581158      0.0037888048   0.81976844    -0.12770163   
    520000   1.0875548      0.005040266    0.94031744    -0.13515337   
    521000   0.94559956     0.0039433224   0.8275383     -0.1075546    
    522000   0.9299083      0.0043487587   0.81551391    -0.10406208   
    523000   1.0594386      0.0042130972   0.91955059    -0.12811648   
    524000   1.0918843      0.0052203438   0.94418891    -0.13556335   
    525000   0.95492237     0.004072774    0.83207402    -0.11223811   
    526000   0.97486754     0.0035527873   0.87018337    -0.093852309  
    527000   1.0729277      0.0049947878   0.93201039    -0.12899592   
    528000   1.0023678      0.0039425555   0.88417055    -0.10705988   
    529000   0.94189527     0.0034661904   0.79918229    -0.13224748   
    530000   0.96626155     0.003925352    0.82827312    -0.12725219   
    531000   0.98462737     0.0041120189   0.86645226    -0.1072348    
    532000   0.98637917     0.0038861195   0.87546926    -0.099950135  
    533000   0.99793525     0.003871629    0.89061402    -0.096233058  
    534000   0.92464985     0.0027627512   0.8011483     -0.11322766   
    535000   1.0597169      0.0039324823   0.95929464    -0.088647615  
    536000   1.0005959      0.0040963393   0.88745551    -0.10202269   
    537000   1.0329319      0.0054865002   0.90799768    -0.11345716   
    538000   1.0145234      0.0036264775   0.91525226    -0.087998612  
    539000   0.96500345     0.0030049531   0.83838171    -0.11589948   
    540000   1.0222883      0.0048020042   0.9024164     -0.10851319   
    541000   1.0594653      0.0042558016   0.9247278     -0.12296571   
    542000   1.0112207      0.0040368678   0.88730462    -0.11268026   
    543000   1.0565208      0.0037429439   0.90416187    -0.14061985   
    544000   0.99758183     0.0034439381   0.8621812     -0.12431638   
    545000   0.97958887     0.0043213971   0.81946571    -0.14923884   
    546000   0.99099863     0.0048199262   0.85199782    -0.12798971   
    547000   1.001849       0.0039451633   0.84721529    -0.14350202   
    548000   1.0408163      0.0050487861   0.91137812    -0.11787354   
    549000   1.0144231      0.0030977691   0.87152805    -0.13162367   
    550000   1.1019723      0.004003302    0.95695101    -0.13277715   
    551000   0.95497412     0.0039137345   0.81486845    -0.12949485   
    552000   0.92850152     0.0035753955   0.79449959    -0.12368525   
    553000   1.0741341      0.0042925386   0.91774623    -0.14445302   
    554000   0.99086177     0.0045194948   0.85430597    -0.12554622   
    555000   1.0287482      0.0041848596   0.8978011     -0.11951656   
    556000   1.0310519      0.0040768117   0.88121091    -0.13838489   
    557000   1.0960548      0.0038008774   0.9658039     -0.11807254   
    558000   0.96504982     0.0038519843   0.85447077    -0.09985628   
    559000   1.0030391      0.0040330949   0.88972284    -0.1021714    
    560000   1.0436762      0.0042852545   0.94108521    -0.090994577  
    561000   1.0417658      0.0044933879   0.92927642    -0.10091422   
    562000   0.99304066     0.0035424402   0.88686434    -0.095142534  
    563000   0.98712217     0.0044754627   0.87480581    -0.10134834   
    564000   1.0621781      0.0038331298   0.95556315    -0.094812922  
    565000   1.0121755      0.0036509797   0.91335967    -0.087569462  
    566000   1.047295       0.0042092421   0.91881393    -0.11684442   
    567000   0.93497089     0.0036349418   0.79948264    -0.12509968   
    568000   0.97727103     0.0038707593   0.85903294    -0.10737952   
    569000   0.970398       0.0032463619   0.8347987     -0.12481709   
    570000   1.0092958      0.0036670486   0.87710181    -0.12097959   
    571000   1.0285212      0.0037237639   0.88097137    -0.13612183   
    572000   0.99735605     0.0040393383   0.86350757    -0.12276674   
    573000   1.0475231      0.0032218063   0.92189277    -0.1139912    
    574000   1.0140583      0.0037388543   0.87839092    -0.12440009   
    575000   1.07184        0.0040468479   0.94417328    -0.11575735   
    576000   1.0031899      0.0042416392   0.87876724    -0.11327614   
    577000   1.0350621      0.0047002762   0.91347187    -0.11008954   
    578000   0.96241994     0.0034923474   0.85039848    -0.10132791   
    579000   0.93332906     0.0045114244   0.80466402    -0.11829472   
    580000   0.85503379     0.003401985    0.69463696    -0.15089645   
    581000   0.99409154     0.00452047     0.86900187    -0.11404421   
    582000   1.0712739      0.0043892707   0.93831986    -0.12105104   
    583000   1.0743052      0.0035276439   0.93063297    -0.1317355    
    584000   0.9545719      0.0043572783   0.82272958    -0.12123597   
    585000   0.86607276     0.0042355834   0.74473264    -0.11171709   
    586000   1.0037945      0.0045787149   0.91204302    -0.080598159  
    587000   1.0995696      0.0053981863   0.97861336    -0.10873878   
    588000   1.0126506      0.0049809432   0.8965837     -0.10481523   
    589000   1.0643832      0.0034722268   0.96487296    -0.087683747  
    590000   0.99704297     0.0042718499   0.9123447     -0.073620022  
    591000   1.0728498      0.0058076044   0.957712      -0.10321722   
    592000   0.83827206     0.0035252576   0.72855499    -0.10040294   
    593000   1.0431539      0.0038817452   0.93666071    -0.094902628  
    594000   0.97075784     0.0033082746   0.85766076    -0.10231088   
    595000   0.94797699     0.0037378666   0.83376967    -0.10367425   
    596000   1.0205574      0.0033020589   0.90358562    -0.10563223   
    597000   1.0264615      0.003583358    0.87748106    -0.13757534   
    598000   0.9990151      0.0032306701   0.86003522    -0.12787971   
    599000   1.0003086      0.0038940024   0.83730735    -0.15188673   
    600000   1.1095283      0.0036625597   0.96216294    -0.13503722   
    601000   1.0006065      0.0045429456   0.86413255    -0.1253561    
    602000   1.0208538      0.0033184439   0.88133942    -0.12817158   
    603000   0.975364       0.0041600294   0.82701409    -0.13751253   
    604000   0.92092425     0.0039103954   0.76546324    -0.14522852   
    605000   0.98738744     0.004032721    0.82032044    -0.15609603   
    606000   1.0135981      0.0047062956   0.8442326     -0.15810326   
    607000   0.97555552     0.0039554596   0.80631914    -0.15839688   
    608000   1.0081235      0.0032084818   0.84378578    -0.15313638   
    609000   0.96565598     0.0039087386   0.80566586    -0.14926061   
    610000   0.98719496     0.0033512854   0.8734825     -0.10274363   
    611000   0.93971649     0.003330479    0.79995843    -0.12931677   
    612000   1.0015995      0.00422384     0.86422836    -0.12624229   
    613000   1.0262275      0.0041932229   0.87869852    -0.13612648   
    614000   1.0184885      0.004212321    0.89821658    -0.10895534   
    615000   1.0595147      0.0045306696   0.94126125    -0.10648106   
    616000   1.0913945      0.0043028444   0.97201057    -0.10725737   
    617000   0.93451489     0.0045247901   0.81301706    -0.11111434   
    618000   1.0105119      0.0036633992   0.88683998    -0.11244405   
    619000   1.0906754      0.0039210583   0.96936586    -0.10919091   
    620000   0.98693062     0.0033442925   0.84527234    -0.13069238   
    621000   0.93555723     0.0028964432   0.78961177    -0.13555038   
    622000   0.90622718     0.0029365105   0.76866262    -0.12749537   
    623000   0.92259587     0.0036614058   0.77602334    -0.13632147   
    624000   1.0129382      0.0036758353   0.8674231     -0.13426027   
    625000   0.98547886     0.0044883389   0.86587083    -0.10865827   
    626000   1.0181034      0.0046893283   0.88687745    -0.11991366   
    627000   1.0474869      0.0042351101   0.92812973    -0.10771842   
    628000   1.0402374      0.003068057    0.91834018    -0.11033898   
    629000   0.96221267     0.003745753    0.83938015    -0.11214127   
    630000   1.0273069      0.0047925915   0.922652      -0.0932404    
    631000   0.94804563     0.0035392283   0.84396557    -0.093546216  
    632000   1.0062327      0.0036982649   0.87841204    -0.11664027   
    633000   1.0208891      0.0042555352   0.8987162     -0.11082972   
    634000   1.0371714      0.0042839757   0.9076161     -0.11803114   
    635000   1.0430939      0.0039578299   0.89548001    -0.13602391   
    636000   0.99777164     0.0035180607   0.86117833    -0.12550696   
    637000   1.0576024      0.0040428507   0.93197398    -0.11387727   
    638000   1.0271719      0.0035890224   0.89462893    -0.12112991   
    639000   1.0148323      0.0043722159   0.88332828    -0.12022814   
    640000   0.93673435     0.0037800104   0.8135531     -0.11277309   
    641000   1.0567312      0.0057943439   0.90891527    -0.13607448   
    642000   0.90608952     0.004128824    0.7801099     -0.11591196   
    643000   1.0152507      0.004124862    0.88199337    -0.12197676   
    644000   0.95924659     0.0047408445   0.82184254    -0.12674576   
    645000   0.98158965     0.0043780491   0.85603546    -0.11464764   
    646000   0.98184767     0.0047925237   0.85018312    -0.12075514   
    647000   1.0247975      0.0043565524   0.88841117    -0.12499968   
    648000   1.0183081      0.0036854094   0.87771894    -0.12927465   
    649000   1.0013129      0.0031665304   0.85499016    -0.13519708   
    650000   1.0110109      0.0030176351   0.8633723     -0.13640512   
    651000   0.9173351      0.0032084401   0.75897235    -0.14817013   
    652000   1.0617514      0.0043109412   0.90696503    -0.14298911   
    653000   1.0128705      0.0043020337   0.8632344     -0.13838199   
    654000   1.0585546      0.0049455144   0.90412005    -0.14267287   
    655000   1.0018856      0.0048145663   0.85763695    -0.13311653   
    656000   1.0101734      0.0033661775   0.8816618     -0.11728741   
    657000   1.0069977      0.0040624009   0.88819707    -0.10761175   
    658000   0.95910185     0.0039795723   0.79318653    -0.15525863   
    659000   1.0921683      0.0040722399   0.94325529    -0.13677779   
    660000   1.04938        0.0040191085   0.89265908    -0.14506119   
    661000   1.0995169      0.0043874361   0.92946714    -0.15783289   
    662000   1.0147119      0.0043872824   0.8627825     -0.14065481   
    663000   1.0538069      0.0046549018   0.90040714    -0.14169081   
    664000   0.90975446     0.0035873324   0.73694563    -0.16270045   
    665000   0.99215216     0.0034956936   0.81020807    -0.17092018   
    666000   0.99220785     0.0033816537   0.79134841    -0.18983491   
    667000   0.976636       0.0042777631   0.79435793    -0.17142656   
    668000   0.9611717      0.0032236243   0.7651068     -0.18538522   
    669000   1.0974812      0.0041014653   0.89595706    -0.18932995   
    670000   1.0590817      0.0043407282   0.88959687    -0.1577173    
    671000   0.98923248     0.0046382151   0.80633979    -0.17190122   
    672000   0.96094027     0.0037609358   0.78855682    -0.16170634   
    673000   0.93240348     0.0030773099   0.76982626    -0.15221719   
    674000   1.0352586      0.0037702993   0.87852655    -0.14522914   
    675000   1.0269988      0.0046427012   0.85000606    -0.1655816    
    676000   1.0315986      0.0044759639   0.89625913    -0.12387729   
    677000   0.91682189     0.0034921918   0.78506743    -0.12156755   
    678000   0.9990411      0.0041981212   0.86348214    -0.1244585    
    679000   0.97253912     0.0043979009   0.85038696    -0.11134618   
    680000   0.99352901     0.0038849566   0.85726295    -0.12522685   
    681000   1.0050889      0.0035462343   0.84883618    -0.1450851    
    682000   0.94467591     0.0039053914   0.82240615    -0.11177336   
    683000   1.0409924      0.0033802257   0.93188346    -0.097542363  
    684000   0.93166558     0.0043608379   0.80425491    -0.11705883   
    685000   1.0569562      0.0048170333   0.94615216    -0.099060076  
    686000   1.0492704      0.00257729     0.93186021    -0.10575167   
    687000   1.020626       0.0043380994   0.89650324    -0.11278249   
    688000   0.9888429      0.004056288    0.87635219    -0.10150356   
    689000   1.0648428      0.0037123716   0.94483119    -0.10817997   
    690000   1.0602453      0.0042523186   0.95206655    -0.096398238  
    691000   0.95614295     0.0038619032   0.84202808    -0.10349106   
    692000   0.95252773     0.003940906    0.84119829    -0.1007458    
    693000   0.89987664     0.0043590677   0.80811361    -0.081764401  
    694000   0.97993339     0.0040057554   0.88627564    -0.082769598  
    695000   0.99685801     0.0029900689   0.887926      -0.097855807  
    696000   1.0524227      0.0038813695   0.9392344     -0.10149471   
    697000   1.0178752      0.0040592686   0.90603935    -0.10052614   
    698000   0.98524364     0.0037627632   0.88807129    -0.086225194  
    699000   1.0913165      0.0049202038   0.96890888    -0.11028188   
    700000   1.0035582      0.0031549668   0.89410373    -0.098303801  
    701000   1.016825       0.0044511346   0.89286034    -0.11266661   
    702000   1.013055       0.0042612772   0.8892056     -0.11259327   
    703000   1.0265741      0.0046973187   0.91494945    -0.10021829   
    704000   1.0096818      0.0032135508   0.92466519    -0.07379795   
    705000   0.99651411     0.0044189565   0.90738201    -0.078059723  
    706000   1.0013926      0.0039095608   0.91391237    -0.076353684  
    707000   1.0539794      0.0044695234   0.94926061    -0.093007942  
    708000   1.0318711      0.0034367627   0.93647596    -0.083929923  
    709000   1.0618485      0.004277272    0.97044557    -0.079604606  
    710000   1.0023881      0.0044491604   0.90535223    -0.085898241  
    711000   0.95133013     0.0035562783   0.86613779    -0.074622009  
    712000   0.95213203     0.0035790491   0.876625      -0.064927786  
    713000   1.0220787      0.0039408697   0.9304977     -0.080224538  
    714000   1.0158106      0.0038730528   0.93402177    -0.070502083  
    715000   1.0039348      0.0030680205   0.92377538    -0.06900454   
    716000   0.99279967     0.004069904    0.91998883    -0.061779734  
    717000   0.93220147     0.0032956039   0.86403419    -0.057809486  
    718000   0.95183714     0.0040154799   0.87702204    -0.064239133  
    719000   0.97693531     0.0039235455   0.89655734    -0.069523132  
    720000   1.0553106      0.0039648945   0.97833847    -0.06524647   
    721000   1.1079725      0.0043864941   1.0413232     -0.054338524  
    722000   0.90747927     0.0037409849   0.83767794    -0.059718226  
    723000   1.0103612      0.0037542094   0.95752743    -0.0416075    
    724000   0.92822088     0.0031630163   0.85071111    -0.067196204  
    725000   0.98160519     0.00437053     0.90246331    -0.068235156  
    726000   0.99368541     0.0038418321   0.91129177    -0.071352689  
    727000   0.99597842     0.0042690585   0.91539203    -0.069519967  
    728000   0.99239537     0.0042329771   0.89310633    -0.08826242   
    729000   1.0216909      0.0043401695   0.93027979    -0.080058972  
    730000   1.0571349      0.0040141326   0.94570399    -0.099684979  
    731000   1.0172111      0.0051238096   0.93106754    -0.074841226  
    732000   0.90891482     0.0035939486   0.80996872    -0.088847053  
    733000   1.0172849      0.0037451095   0.92441125    -0.08157045   
    734000   0.94041295     0.0041834787   0.8339185     -0.096045419  
    735000   1.0114198      0.0041315842   0.8997526     -0.10042925   
    736000   1.1016953      0.0042164585   1.0074607     -0.081993527  
    737000   1.0140053      0.0031996613   0.91929568    -0.083442884  
    738000   0.93084915     0.0041995376   0.8380352     -0.082471189  
    739000   1.0879078      0.0029689353   1.000807      -0.075012954  
    740000   0.9562524      0.0038626129   0.8648139     -0.080813472  
    741000   0.97730846     0.0039516512   0.87466839    -0.091781093  
    742000   0.98287754     0.0028790903   0.88851229    -0.083444388  
    743000   1.0251176      0.0035691125   0.9351394     -0.07858798   
    744000   0.90778461     0.0046820285   0.82364258    -0.074055535  
    745000   0.96990861     0.0040209608   0.88495923    -0.074172617  
    746000   1.0330835      0.0038655611   0.94176326    -0.079841546  
    747000   0.93238375     0.0034110934   0.85674187    -0.065282063  
    748000   0.87431387     0.0035666306   0.79387853    -0.070720742  
    749000   1.0415456      0.0047341978   0.99098637    -0.038986542  
    750000   0.99191337     0.0037711333   0.93661492    -0.044277186  
    751000   1.0082584      0.0037006881   0.94295765    -0.054097878  
    752000   1.0424341      0.0041711701   0.97686081    -0.053990649  
    753000   1.0541203      0.0035810953   0.98609207    -0.056315815  
    754000   0.98196003     0.003976498    0.90057996    -0.070469402  
    755000   0.96154545     0.003991479    0.90109005    -0.049771561  
    756000   0.97838007     0.0041587877   0.91212674    -0.055382438  
    757000   1.0613883      0.0039533555   0.98277237    -0.066822741  
    758000   0.95550509     0.0037729468   0.88413799    -0.060750384  
    759000   0.99445373     0.0044982462   0.91267325    -0.070730993  
    760000   1.0259881      0.0048520559   0.95491911    -0.059669093  
    761000   1.0264919      0.0042861648   0.92986063    -0.085225816  
    762000   0.97634166     0.0050278559   0.88753095    -0.077962468  
    763000   1.0651332      0.0037787508   0.98298453    -0.070313832  
    764000   0.9411825      0.0052523527   0.86736869    -0.063356224  
    765000   0.99200294     0.0042878748   0.89872433    -0.082256358  
    766000   1.031621       0.0041410258   0.9277187     -0.092439833  
    767000   0.94385134     0.0039284842   0.87322783    -0.060136275  
    768000   1.0469391      0.0039602099   0.96822794    -0.067078503  
    769000   1.0349417      0.0042307058   0.96822385    -0.055218505  
    770000   0.89729154     0.0042814469   0.84337546    -0.043946176  
    771000   0.99342746     0.0036269596   0.91190889    -0.070480489  
    772000   0.98546992     0.0045332701   0.90778972    -0.066730535  
    773000   1.0616878      0.0046540899   0.99099073    -0.058900537  
    774000   1.02966        0.0047285282   0.96293105    -0.055288263  
    775000   1.1566396      0.0043256606   1.0963964     -0.047391567  
    776000   0.95505229     0.004007456    0.88393648    -0.060504111  
    777000   0.96748283     0.0032697228   0.90356956    -0.053163463  
    778000   1.0097475      0.0045667793   0.93814959    -0.060378515  
    779000   0.99401464     0.0040086077   0.92540964    -0.057560396  
    780000   1.0020436      0.003430713    0.92841685    -0.062492967  
    781000   0.94981161     0.0036853741   0.88973566    -0.049522486  
    782000   1.0688704      0.0045940465   0.99058497    -0.066409116  
    783000   0.93907323     0.0036064735   0.85079581    -0.077843269  
    784000   0.95235942     0.004704548    0.87169389    -0.070083756  
    785000   0.99033125     0.0044478847   0.91146218    -0.067865394  
    786000   0.97858627     0.0030003308   0.91369664    -0.05401644   
    787000   1.0028431      0.0035401667   0.92495553    -0.066744892  
    788000   1.0347726      0.0044934101   0.96935644    -0.053918642  
    789000   1.0415919      0.0035049625   0.97917249    -0.050846122  
    790000   1.1323976      0.0033341705   1.0659863     -0.053829171  
    791000   1.0413564      0.0047588512   0.96870971    -0.061076077  
    792000   1.0524974      0.0030654223   0.98953733    -0.051265655  
    793000   0.95717272     0.0045714918   0.89247378    -0.054063691  
    794000   0.96578106     0.0049185895   0.89588334    -0.059166816  
    795000   0.9823848      0.0041763632   0.9166136     -0.054855816  
    796000   1.0902599      0.0050339192   1.0193091     -0.058836842  
    797000   0.98602505     0.0045727226   0.90594538    -0.069123829  
    798000   1.0731896      0.0033705631   0.98378286    -0.077482416  
    799000   0.98505195     0.0035728637   0.89492523    -0.079181702  
    800000   1.0201851      0.004160912    0.92600269    -0.082847043  
    801000   0.97902616     0.0037451541   0.90252113    -0.065626965  
    802000   1.0318202      0.0047868808   0.95047051    -0.069885032  
    803000   0.91669087     0.0033665355   0.81656719    -0.089938224  
    804000   1.0014645      0.0034363335   0.91239892    -0.07793817   
    805000   1.1055656      0.0049924216   1.0127557     -0.08052589   
    806000   1.0179402      0.0036305516   0.91755017    -0.089079553  
    807000   1.0267006      0.0046969378   0.94996953    -0.065323243  
    808000   1.0916415      0.0038483621   0.99618109    -0.083331093  
    809000   1.0881803      0.0050342809   1.0069346     -0.069154783  
    810000   1.0258039      0.0041530768   0.92954223    -0.084863837  
    811000   0.96708134     0.0037528229   0.88289723    -0.073438763  
    812000   0.9677285      0.003361546    0.87674732    -0.080228638  
    813000   1.0456894      0.0048029348   0.95346126    -0.080609337  
    814000   0.97184267     0.0044166314   0.88651086    -0.074533558  
    815000   1.0589374      0.0046390167   0.97398157    -0.073189869  
    816000   1.0981342      0.0043994749   1.0063829     -0.07954982   
    817000   0.88603385     0.0035933263   0.78640724    -0.08978179   
    818000   0.94036239     0.0031745351   0.83932117    -0.090592751  
    819000   1.033912       0.0041881729   0.92942319    -0.093000913  
    820000   1.0310194      0.0040973009   0.93321668    -0.086346969  
    821000   0.96490724     0.004246006    0.87166204    -0.082524015  
    822000   1.0010776      0.0035709574   0.9149623     -0.074992216  
    823000   1.0441267      0.0042879974   0.95389165    -0.078633619  
    824000   0.90915258     0.0031514438   0.83022744    -0.068823446  
    825000   1.0507475      0.0038582673   0.97548145    -0.063591112  
    826000   1.0270383      0.0044765216   0.96691816    -0.048708641  
    827000   0.9038162      0.0040066251   0.83750859    -0.056265207  
    828000   1.010483       0.004359496    0.92078616    -0.078469275  
    829000   1.0386639      0.0044825707   0.93690155    -0.090221594  
    830000   0.95956165     0.0037613174   0.85503767    -0.093862185  
    831000   0.91378571     0.0035770853   0.83783979    -0.065792748  
    832000   0.95303317     0.0045721099   0.85937275    -0.08307117   
    833000   1.0404682      0.0046889727   0.96814558    -0.060761886  
    834000   1.0393863      0.0036893546   0.94405788    -0.083779697  
    835000   0.95604524     0.0044432772   0.87541557    -0.07000694   
    836000   1.0125984      0.0035633695   0.93191108    -0.069436215  
    837000   1.0135507      0.0032507682   0.9472513     -0.055037725  
    838000   0.98959596     0.0035052724   0.91596198    -0.062638477  
    839000   1.0333822      0.0046429276   0.94665395    -0.075246266  
    840000   1.0228583      0.0045184316   0.94183186    -0.069661338  
    841000   0.99300217     0.0041891263   0.93111001    -0.050858801  
    842000   1.0333893      0.0042163251   0.96445747    -0.057449729  
    843000   1.0718841      0.0035992653   1.0011792     -0.058795071  
    844000   0.98760694     0.0034068098   0.92365632    -0.052977209  
    845000   0.93503132     0.0040539741   0.86934571    -0.055296367  
    846000   1.0178265      0.004823133    0.94601978    -0.060497547  
    847000   0.97475923     0.0039646465   0.90549673    -0.05843184   
    848000   1.0029683      0.0040051235   0.92994616    -0.061878026  
    849000   0.98366152     0.0042663584   0.90990586    -0.062826087  
    850000   1.0362076      0.0049080529   0.96517971    -0.059514427  
    851000   0.95942876     0.0041772958   0.88612521    -0.062643225  
    852000   0.9416881      0.0043449084   0.8626027     -0.068622199  
    853000   0.95580512     0.0040732671   0.86823896    -0.076946104  
    854000   0.98493802     0.0029822739   0.90738807    -0.066606203  
    855000   0.8500418      0.0023786775   0.78592099    -0.054675902  
    856000   1.0363746      0.0044952953   0.93896561    -0.085893763  
    857000   1.0084466      0.0036390752   0.89555818    -0.10168344   
    858000   1.0285098      0.004750654    0.91283911    -0.10424276   
    859000   1.0265394      0.0029500035   0.92993809    -0.085195356  
    860000   0.97484922     0.0036451631   0.88462808    -0.07938948   
    861000   1.0081813      0.0036512519   0.90885456    -0.08812477   
    862000   1.0153398      0.0044531297   0.94622019    -0.057838011  
    863000   1.1296008      0.0046817876   1.04142       -0.075629672  
    864000   0.98870238     0.0022414737   0.91656918    -0.061147626  
    865000   1.0260954      0.0037238573   0.94267123    -0.07202314   
    866000   1.0102094      0.0042283812   0.92406239    -0.074922463  
    867000   0.96684536     0.0030939832   0.89393869    -0.062163941  
    868000   0.99345266     0.0042244165   0.91927253    -0.063141768  
    869000   0.98984363     0.0045130833   0.89916332    -0.079682047  
    870000   1.0270213      0.0045777389   0.92560872    -0.090001267  
    871000   1.0328517      0.004624016    0.93575395    -0.085621579  
    872000   0.95468397     0.0041576786   0.86823593    -0.075840444  
    873000   1.0226438      0.005038802    0.90860984    -0.10267122   
    874000   0.9980151      0.0048839918   0.8899144     -0.097011634  
    875000   0.94859874     0.0038919365   0.83328885    -0.1047699    
    876000   0.97029603     0.0037978247   0.86355582    -0.095959148  
    877000   1.0820024      0.0050818836   0.98035391    -0.08962624   
    878000   0.99941524     0.0035868234   0.88956676    -0.098743866  
    879000   0.98491361     0.0046384119   0.8856671     -0.088303016  
    880000   0.9711734      0.0034526872   0.86892633    -0.091456249  
    881000   0.95417428     0.0045641643   0.85636665    -0.087205691  
    882000   0.9871017      0.0038585159   0.89594094    -0.080192966  
    883000   1.011679       0.0048063053   0.89280475    -0.10763342   
    884000   1.0327002      0.0040341253   0.94475652    -0.076469236  
    885000   1.0432693      0.0043023481   0.97045852    -0.061218908  
    886000   0.97840926     0.0043299857   0.91144229    -0.056095756  
    887000   1.0980004      0.0042799803   1.0251755     -0.060624923  
    888000   0.97755076     0.0031610143   0.91033369    -0.056355397  
    889000   1.0984948      0.0050159705   1.0369072     -0.049382043  
    890000   0.91857558     0.0031341304   0.85142876    -0.056940425  
    891000   0.92971018     0.0040645541   0.87371051    -0.045669561  
    892000   1.0331364      0.0048743532   0.96442362    -0.057233489  
    893000   0.96980659     0.004069079    0.90465296    -0.054378002  
    894000   0.97398274     0.0039488486   0.92368904    -0.039471668  
    895000   0.88941418     0.0030210886   0.82332358    -0.056208225  
    896000   1.0711944      0.0042188204   1.0003169     -0.058975274  
    897000   0.97026595     0.0045406135   0.90738569    -0.05209953   
    898000   1.0107951      0.0044797578   0.94653667    -0.053027383  
    899000   0.84865361     0.003775922    0.78413355    -0.055090571  
    900000   1.018785       0.0043548604   0.95742087    -0.050044282  
    901000   0.98754729     0.0034129647   0.93817841    -0.038396138  
    902000   0.93099657     0.0026016073   0.86993557    -0.050716593  
    903000   0.99969807     0.0041083029   0.93932267    -0.049267641  
    904000   1.0031549      0.0028542629   0.93478303    -0.05722567   
    905000   0.91633477     0.0035136489   0.84698596    -0.059167308  
    906000   1.0314593      0.0050023002   0.96304985    -0.056948829  
    907000   1.0094441      0.0031276493   0.96306892    -0.03515912   
    908000   1.0428028      0.0050787572   0.99434098    -0.036875128  
    909000   0.97534474     0.0045139522   0.9335609     -0.03094667   
    910000   1.0133205      0.0042074133   0.95833918    -0.04372218   
    911000   1.0580606      0.0035754029   1.011765      -0.034539389  
    912000   1.1049646      0.0034759986   1.0403289     -0.05235831   
    913000   1.0323551      0.004135103    0.96464947    -0.056235039  
    914000   1.0793913      0.0050056425   1.0286503     -0.038747768  
    915000   1.0161162      0.004286552    0.9672782     -0.037547824  
    916000   1.028671       0.00366148     0.97568142    -0.041559919  
    917000   1.0334925      0.0037296215   0.98325692    -0.038752363  
    918000   0.90624707     0.0030374604   0.86563586    -0.030541798  
    919000   0.96375566     0.0038171134   0.91815548    -0.034891778  
    920000   1.0012483      0.0039700566   0.95797485    -0.03214846   
    921000   0.9949896      0.0053499604   0.95298573    -0.030948429  
    922000   0.97863717     0.0036655974   0.93130334    -0.03646008   
    923000   0.9705777      0.0048985889   0.92327038    -0.036523123  
    924000   0.97500604     0.0037505803   0.91988245    -0.044290192  
    925000   0.94133976     0.0035712121   0.89473227    -0.036148165  
    926000   0.95655396     0.002662441    0.91366558    -0.032259998  
    927000   0.98040081     0.0035203399   0.92493677    -0.0445707    
    928000   0.97857099     0.0033246252   0.91244697    -0.055251002  
    929000   1.0853857      0.0038655743   1.0170734     -0.056252488  
    930000   0.9940375      0.0036385864   0.91471487    -0.068277768  
    931000   0.96918246     0.0038269224   0.90719214    -0.051221626  
    932000   1.1098692      0.0044812893   1.0405652     -0.056972192  
    933000   1.0569402      0.0045280035   0.98445026    -0.060746158  
    934000   1.0010019      0.0037836423   0.93834106    -0.051538597  
    935000   0.99856264     0.0041859361   0.92140469    -0.066062808  
    936000   1.0731175      0.0033351657   0.99947107    -0.061722917  
    937000   1.0544883      0.0038494065   0.97689349    -0.06587829   
    938000   1.0469776      0.0047496645   0.97836716    -0.056977331  
    939000   1.0253912      0.0045282509   0.94386126    -0.070136667  
    940000   0.97461414     0.0035947694   0.88362773    -0.080157363  
    941000   0.99529339     0.0037235793   0.89704886    -0.087185715  
    942000   1.0693541      0.004258153    0.97567055    -0.081801812  
    943000   0.87534367     0.0033040432   0.77975717    -0.085860455  
    944000   1.0162813      0.0043648851   0.9181878     -0.086801528  
    945000   1.0126329      0.0038617184   0.92994523    -0.071436168  
    946000   1.0791917      0.0045227497   0.98416954    -0.083031131  
    947000   0.95182651     0.0033938365   0.85805637    -0.083194286  
    948000   1.0649225      0.0044961874   0.99307191    -0.060018155  
    949000   1.0492768      0.004208199    0.98098984    -0.056628278  
    950000   1.0566901      0.0050531399   0.95391329    -0.091035822  
    951000   0.96557594     0.0030693245   0.8620818     -0.092765523  
    952000   1.0618352      0.004599757    0.95608606    -0.093950986  
    953000   1.0117236      0.0040099234   0.93122457    -0.069257654  
    954000   1.0284771      0.0041186486   0.94778036    -0.069269252  
    955000   1.0397525      0.004790075    0.95175902    -0.076440714  
    956000   0.94073843     0.0033647818   0.84839766    -0.081888126  
    957000   0.96474321     0.0040606244   0.85372712    -0.10029672   
    958000   0.9766772      0.0045547684   0.87286194    -0.09296329   
    959000   1.010949       0.004105164    0.89383993    -0.10587629   
    960000   1.0036654      0.0039106273   0.90528964    -0.087223901  
    961000   1.0393838      0.0047529375   0.93503619    -0.092798919  
    962000   1.0005755      0.0042659319   0.89216429    -0.097293726  
    963000   1.0049505      0.0036461722   0.88291033    -0.11087401   
    964000   1.0368629      0.0042229066   0.93081456    -0.094527601  
    965000   1.022883       0.0045798079   0.91386812    -0.097649492  
    966000   1.0674777      0.0043537853   0.92227587    -0.13334093   
    967000   1.011441       0.0046314769   0.88384042    -0.11636234   
    968000   0.97022406     0.0048248639   0.86625566    -0.093188137  
    969000   1.01972        0.0036542225   0.91774154    -0.090648237  
    970000   1.1215209      0.0046916046   0.99785869    -0.11120082   
    971000   1.0572207      0.0046245878   0.92423287    -0.1212409    
    972000   0.97168704     0.0047014851   0.82894612    -0.1319444    
    973000   1.0920773      0.0040693821   0.95063853    -0.12930457   
    974000   1.0387276      0.0046115804   0.89741066    -0.12977548   
    975000   0.97206675     0.0038225961   0.82591095    -0.13535506   
    976000   1.0637781      0.0037401547   0.91748135    -0.13447703   
    977000   0.96956522     0.0034561062   0.81386067    -0.14493161   
    978000   0.979199       0.0044417377   0.8076543     -0.16066471   
    979000   0.9692684      0.0038463526   0.81013921    -0.14835954   
    980000   0.96522186     0.003514156    0.81098088    -0.14351629   
    981000   0.88227342     0.0038466258   0.72418909    -0.14828129   
    982000   1.0736764      0.0044846068   0.91157783    -0.1501688    
    983000   0.96672952     0.0042987777   0.80992769    -0.14606039   
    984000   0.99210394     0.0037789794   0.82363717    -0.1574434    
    985000   1.0381377      0.0032036236   0.90509343    -0.1215094    
    986000   1.0345671      0.0041499215   0.897063      -0.12600889   
    987000   1.0325984      0.0047682047   0.87207393    -0.14905119   
    988000   0.9869634      0.0048869094   0.8392652     -0.13673193   
    989000   0.98431723     0.0037146435   0.84032134    -0.13305904   
    990000   1.0203915      0.0035855428   0.8741922     -0.1348616    
    991000   0.90401255     0.004127578    0.77637917    -0.1175888    
    992000   0.96262184     0.0045806978   0.85019582    -0.10173022   
    993000   1.0220466      0.0037307806   0.90085847    -0.10983204   
    994000   1.0022748      0.0042393724   0.8612318     -0.12990663   
    995000   1.0373391      0.0046601684   0.88659358    -0.13921953   
    996000   1.0305389      0.0034843874   0.84971285    -0.16937566   
    997000   1.0133155      0.0036540281   0.84718297    -0.15487349   
    998000   1.0381018      0.003996367    0.85462931    -0.17193801   
    999000   1.0073237      0.0040301134   0.82195069    -0.17418052   
   1000000   1.0019707      0.0048896333   0.81471131    -0.17612636   
Loop time of 17.4396 on 1 procs for 1000000 steps with 405 atoms

Performance: 49542319.020 tau/day, 57340.647 timesteps/s
99.0% CPU use with 1 MPI tasks x no OpenMP threads

MPI task timing breakdown:
Section |  min time  |  avg time  |  max time  |%varavg| %total
---------------------------------------------------------------
Pair    | 0.99942    | 0.99942    | 0.99942    |   0.0 |  5.73
Bond    | 0.042411   | 0.042411   | 0.042411   |   0.0 |  0.24
Neigh   | 3.3486     | 3.3486     | 3.3486     |   0.0 | 19.20
Comm    | 0.86923    | 0.86923    | 0.86923    |   0.0 |  4.98
Output  | 0.3261     | 0.3261     | 0.3261     |   0.0 |  1.87
Modify  | 10.499     | 10.499     | 10.499     |   0.0 | 60.20
Other   |            | 1.355      |            |       |  7.77

Nlocal:            405 ave         405 max         405 min
Histogram: 1 0 0 0 0 0 0 0 0 0
Nghost:             60 ave          60 max          60 min
Histogram: 1 0 0 0 0 0 0 0 0 0
Neighs:             34 ave          34 max          34 min
Histogram: 1 0 0 0 0 0 0 0 0 0

Total # of neighbors = 34
Ave neighs/atom = 0.083950617
Ave special neighs/atom = 0
Neighbor list builds = 212507
Dangerous builds = 0
Total wall time: 0:00:17
