fix fLANG all langevin 1.0 1.0 1.0 100
neigh_modify exclude molecule/intra all
fix rigidNVE linked_vesicle rigid/nve molecule
  1 rigid bodies with 5 atoms
fix NVE synapsin nve 1.0 1.0 1.0

    ##======================================##
    ## Output
    ##======================================##

thermo 1000
thermo_style custom step temp press etotal epair
thermo_modify flush yes
timestep 0.01

    ##======================================##
    ## Equilibration before output
    ##======================================##


    ##======================================##
    ## Run with output
    ##======================================##

fix enforce_2d all enforce2d
dump 2 all custom 1000 Results_eps_attr1_eps_rep1_range2_attr_with_repFalse_n_synapsin400_n_vesicles1/Movie_2d_eps_attr1_eps_rep1_range2_attr_with_repFalse_n_synapsin400_n_vesicles1.xyz id type mol x y z
run 1000000
Generated 0 of 3 mixed pair_coeff terms from geometric mixing rule
Neighbor list info ...
  update every 1 steps, delay 1 steps, check yes
  max neighbors/atom: 2000, page size: 100000
  master list distance cutoff = 11.52462
  ghost atom cutoff = 11.52462
  binsize = 5.7623102, bins = 55 55 1
  1 neighbor lists, perpetual/occasional/extra = 1 0 0
  (1) pair cosine/squared, perpetual
      attributes: half, newton on
      pair build: half/bin/newton
      stencil: half/bin/2d
      bin: standard
Per MPI rank memory allocation (min/avg/max) = 8.526 | 8.526 | 8.526 Mbytes
   Step          Temp          Press          TotEng         E_pair    
         0   0.99441908    -0.013071225    0.98336998     0            
      1000   1.052877       0.0040548885   1.0411809      2.5044906e-06
      2000   0.97902644     0.0030040622   0.96849889     0.00035052091
      3000   1.0601207      0.0035583022   1.0483416      0            
      4000   1.0466423      0.0043625821   1.0350129      0            
      5000   1.0005436      0.0035020426   0.98945454     2.8061539e-05
      6000   0.97028404     0.0030784247   0.95950311     0            
      7000   0.9429228      0.0035389451   0.9342467      0.001800821  
      8000   1.070792       0.0042930144   1.0588943      0            
      9000   1.099818       0.0040939823   1.0875978      0            
     10000   1.0642281      0.0047822672   1.0522943     -0.00010900216
     11000   0.96178959     0.0044415766   0.95110304     0            
     12000   0.92921419     0.0051587005   0.91888959     0            
     13000   0.95562554     0.0032740459   0.94500748     0            
     14000   1.0606276      0.0040585094   1.0488428      0            
     15000   0.96109904     0.0036776736   0.94944955    -0.00097060751
     16000   0.96848654     0.0046648031   0.95775407     2.8488409e-05
     17000   1.0087941      0.0046487626   0.99758529     0            
     18000   1.0766733      0.0043532573   1.0648273      0.00011702663
     19000   1.0010793      0.0043732097   0.98995204    -4.1583891e-06
     20000   0.99175545     0.0044854231   0.98073595     0            
     21000   0.95812123     0.0051934937   0.95264199     0.0051665484 
     22000   0.88480529     0.0044104235   0.87564082     0.00066670134
     23000   0.89887939     0.003873024    0.88777714    -0.001114707  
     24000   0.95078221     0.0034017003   0.93987266    -0.00034530853
     25000   0.95997069     0.0038295038   0.94770437    -0.0015999729 
     26000   0.96390031     0.0047424192   0.95319031     0            
     27000   1.0054295      0.0041583488   0.99225311    -0.0020049778 
     28000   1.0229376      0.0035528872   1.0113139     -0.00025773545
     29000   1.0363627      0.0038552703   1.0231001     -0.001747444  
     30000   0.96200002     0.0045578292   0.95131113     0            
     31000   0.99101171     0.0041188935   0.98000047     0            
     32000   1.0554123      0.0043680435   1.0416676     -0.0020178513 
     33000   1.028681       0.0044628394   1.0162342     -0.0010170101 
     34000   0.95588376     0.0040429654   0.9439241     -0.0013387297 
     35000   1.0482884      0.0039720501   1.0366408      0            
     36000   0.98576822     0.0037820752   0.97481524     0            
     37000   1.0198331      0.0041131855   1.0085016      0            
     38000   0.99881538     0.0035781996   0.98793208     0.00021464665
     39000   0.89396148     0.0032875816   0.88402858     0            
     40000   1.0304704      0.0038227753   1.0190207      0            
     41000   0.94275714     0.0034270932   0.93228206     0            
     42000   1.0293661      0.004463265    1.0182625      0.00033383424
     43000   1.0007454      0.0040544536   0.98841196    -0.001214008  
     44000   1.0466587      0.0047599859   1.0350292      0            
     45000   1.029295       0.0040813369   1.0178584      0            
     46000   1.0332029      0.0054563624   1.0206663     -0.0010565351 
     47000   0.99226445     0.004265806    0.98123929     0            
     48000   1.0663806      0.0047833795   1.0526828     -0.0018491899 
     49000   1.0091614      0.0044278205   0.99767444    -0.00027404415
     50000   0.96363766     0.003904053    0.9503711     -0.0025594793 
     51000   1.0206952      0.0046175042   1.0070454     -0.0023087536 
     52000   1.0832002      0.004336674    1.0711647      0            
     53000   1.0348918      0.0042799934   1.023393       0            
     54000   1.0749187      0.0042675959   1.0629752      0            
     55000   0.98708599     0.0048370511   0.97611837     0            
     56000   1.052358       0.0039893716   1.0406651      0            
     57000   0.98659937     0.0039780261   0.97563715     0            
     58000   0.96262249     0.0047293359   0.95476225     0.0028355676 
     59000   1.0177973      0.0030280413   1.0064885      0            
     60000   1.0118893      0.0045056169   1.0006461      0            
     61000   1.0376187      0.0041327184   1.0260896      0            
     62000   0.97107589     0.0037463593   0.96028616     0            
     63000   1.0764811      0.0040995428   1.0645202      0            
     64000   0.98370036     0.0032980264   0.97091018    -0.0018601724 
     65000   1.0536965      0.0045565758   1.0420368      4.802238e-05 
     66000   1.0403348      0.0036930197   1.0287755      0            
     67000   0.99569229     0.0043925584   0.98421679    -0.00041225035
     68000   0.99350376     0.004709989    0.98246483     0            
     69000   0.98163638     0.0035922767   0.97086848     0.00013917209
     70000   1.0533594      0.0045070805   1.0416554      0            
     71000   0.9763628      0.0041567824   0.96551432     0            
     72000   1.0534116      0.0044032886   1.0417071      0            
     73000   0.95186322     0.0033554928   0.94148849     0.0002015314 
     74000   0.92052973     0.0034421665   0.91136631     0.0010646928 
     75000   1.0282194      0.0040809813   1.0142335     -0.0025612353 
     76000   1.0447384      0.0037401159   1.0328207     -0.00030952351
     77000   1.0366734      0.0039641111   1.0251548      0            
     78000   0.99515766     0.0041637697   0.98405027    -5.008536e-05 
     79000   1.0302725      0.0032233987   1.0177866     -0.0010384581 
     80000   1.078617       0.0039623484   1.0648939     -0.0017385058 
     81000   0.9638056      0.0044635788   0.95242438    -0.00067226143
     82000   1.0231837      0.0037260781   1.0112749     -0.00054010631
     83000   1.0002547      0.0037040174   0.988747      -0.00039374544
     84000   0.93207642     0.0033731254   0.92117753    -0.00054247881
     85000   0.95486786     0.0040546938   0.94415276    -0.00010546025
     86000   1.0089241      0.0041766918   0.99771388     0            
     87000   0.95360286     0.0033637285   0.94250128    -0.00050599557
     88000   1.01295        0.0039338932   1.0013801     -0.00031489915
     89000   0.96903323     0.0035742379   0.95826619     0            
     90000   0.97560731     0.0039324031   0.96476723     0            
     91000   1.0029027      0.0032483497   0.99175934     0            
     92000   1.0208608      0.0030590376   1.0095179      0            
     93000   1.0531213      0.0040345201   1.04142        0            
     94000   1.0183014      0.0046553743   1.0069869      0            
     95000   1.0009579      0.0041734951   0.98983614     0            
     96000   1.0438381      0.0034156786   1.0314214     -0.00081848014
     97000   0.94472517     0.0043586477   0.93422822     0            
     98000   0.98009033     0.0038366827   0.96734417    -0.0018562622 
     99000   0.97278863     0.0042642706   0.96197987     0            
    100000   0.98668689     0.0034795682   0.9757237      0            
    101000   1.0978292      0.0040865358   1.0856319      7.5671766e-07
    102000   0.97512946     0.0053461016   0.96429469     0            
    103000   1.0723986      0.0050876098   1.0622416      0.0017585358 
    104000   0.96414063     0.0037849911   0.95342795     0            
    105000   0.99596613     0.0045314229   0.98550692     0.00060708618
    106000   0.96789422     0.0045557986   0.95713984     0            
    107000   1.0098767      0.0050399328   0.99865586     0            
    108000   0.94382724     0.0038142509   0.93334027     0            
    109000   0.97973719     0.0036386546   0.96885122     0            
    110000   1.0586792      0.00411024     1.0469161      0            
    111000   1.0288664      0.0045612156   1.0174345      0            
    112000   1.0178021      0.0039379703   1.0064932      0            
    113000   1.0219654      0.0044779627   1.0106103      0            
    114000   1.0191953      0.0042389509   1.0078709      0            
    115000   1.1302941      0.004429015    1.1178079      7.2606236e-05
    116000   1.0338387      0.0043162453   1.0209259     -0.0014256649 
    117000   1.0377207      0.0044443763   1.0276633      0.0014728184 
    118000   1.0791504      0.0043264219   1.066754      -0.00040593175
    119000   1.0498728      0.0047079193   1.0382076      0            
    120000   1.0334262      0.0050968503   1.0219437      0            
    121000   1.0786749      0.0049329106   1.0666896      0            
    122000   0.97293224     0.0030021902   0.96211605    -5.833872e-06 
    123000   1.0351005      0.0046019435   1.0201124     -0.0034869686 
    124000   0.96446554     0.0036346005   0.95374926     0            
    125000   0.99598342     0.0044252376   0.98406818    -0.00084875417
    126000   1.0183218      0.004478241    1.0070071      0            
    127000   0.99074584     0.0035310899   0.97873648    -0.0010010803 
    128000   1.0739814      0.0043457314   1.0620483      0            
    129000   1.0154725      0.0045315111   1.0041895      0            
    130000   0.99938385     0.0042207331   0.98917882     0.00089922821
    131000   1.0082328      0.0031800204   0.99506641    -0.0019637753 
    132000   0.93812042     0.0042940585   0.92769686     0            
    133000   0.99832125     0.0039382533   0.98719414    -3.4646748e-05
    134000   1.0565796      0.0036025258   1.0448399      0            
    135000   1.0538922      0.0051294069   1.0412329     -0.0009493101 
    136000   0.91317091     0.0031398269   0.90302457     0            
    137000   0.9787537      0.0037518107   0.96787866     0            
    138000   0.96278984     0.0042754041   0.95247867     0.00038649597
    139000   0.97411105     0.0033975049   0.96385382     0.00056623388
    140000   0.99145259     0.0037174901   0.98043645     0            
    141000   0.993793       0.0040179415   0.98275086     0            
    142000   1.0503641      0.0043560528   1.0371259     -0.0015674356 
    143000   0.92423539     0.0032805379   0.91396611     0            
    144000   1.0488006      0.004874161    1.0371472      0            
    145000   0.91348769     0.0047938198   0.90333783     0            
    146000   0.95049792     0.0046169748   0.93802216    -0.0019146695 
    147000   1.0210075      0.0041174119   1.0096629      0            
    148000   0.97532531     0.0037662947   0.96288853    -0.0015998329 
    149000   0.91871426     0.0030232415   0.90721461    -0.0012917099 
    150000   0.99893725     0.004372313    0.98752649    -0.00031145571
    151000   0.97650154     0.0036429436   0.96565152     0            
    152000   1.0657902      0.0046127367   1.0539481      0            
    153000   0.9994127      0.0035272667   0.98830811     0            
    154000   1.0134332      0.0043245153   1.0021728      0            
    155000   1.1119288      0.0038273191   1.0995741      0            
    156000   1.0739102      0.0036121648   1.0619778      0            
    157000   0.96670201     0.0038366863   0.95596088     0            
    158000   1.0294431      0.0043590297   1.0171099     -0.00089492981
    159000   0.97639844     0.0039750676   0.96564967     0.0001001033 
    160000   1.0086439      0.0038155685   0.99743679     0            
    161000   0.95469541     0.0039472548   0.94170031    -0.0023873778 
    162000   1.0365249      0.0042819908   1.0244596     -0.00054835153
    163000   1.029234       0.0044487807   1.0177981      0            
    164000   1.0312394      0.0038692035   1.0197812      0            
    165000   1.0593447      0.0043442271   1.0475743      0            
    166000   0.93162574     0.0041205477   0.92092397    -0.00035037286
    167000   1.0167123      0.0040496194   1.0032138     -0.0022016927 
    168000   1.0899196      0.0043834165   1.0777269     -8.246522e-05 
    169000   1.0377236      0.0042463194   1.0261934      0            
    170000   0.99790874     0.0045938693   0.98682086     0            
    171000   1.0138198      0.0048221826   1.0025552      0            
    172000   1.0374577      0.0043777312   1.0239928     -0.0019375632 
    173000   1.0172962      0.0038801831   1.0042481     -0.0017448827 
    174000   1.0712936      0.0043353354   1.0577758     -0.0016145672 
    175000   0.96802659     0.0043612263   0.95543027    -0.0018404751 
    176000   0.95634643     0.0034620973   0.94572036     0            
    177000   0.98420651     0.0026686845   0.97327088     0            
    178000   0.97161577     0.0041008757   0.95874975    -0.0020702865 
    179000   1.0085453      0.0041366435   0.99733929     0            
    180000   0.96261962     0.0038662387   0.95192384     0            
    181000   0.99627635     0.0035705597   0.984274      -0.00093261139
    182000   0.99845707     0.0041042648   0.98736311     0            
    183000   1.0402533      0.0050558662   1.0286949      0            
    184000   1.0594867      0.0048049467   1.0533552      0.0056405267 
    185000   1.0367745      0.0036568936   1.0237327     -0.0015220573 
    186000   0.99451259     0.0042873658   0.98346245     0            
    187000   0.97814425     0.004012573    0.96727598     0            
    188000   1.0407423      0.0048663079   1.0281798     -0.00099877265
    189000   0.90360971     0.0041286331   0.89594712     0.002377519  
    190000   1.0680152      0.004499891    1.0561484      0            
    191000   1.0557469      0.0041004534   1.0440164      0            
    192000   1.0488711      0.004433275    1.037217       0            
    193000   1.0219346      0.0043351935   1.0105798      0            
    194000   0.98516661     0.0038621101   0.97422032     0            
    195000   1.0707969      0.0046100359   1.0588992      0            
    196000   1.0443995      0.0045035451   1.031289      -0.0015059811 
    197000   0.98743874     0.0042602158   0.9764672      0            
    198000   0.93360448     0.0044441031   0.9232311      0            
    199000   0.95807793     0.0044808804   0.94659527    -0.00083734606
    200000   1.0025683      0.0050449974   0.99142869     0            
    201000   1.0317766      0.0039056552   1.0203634      5.0987979e-05
    202000   1.0084002      0.0045694346   0.99742892     0.00023320125
    203000   0.95098744     0.0040418029   0.94042091     0            
    204000   0.98699749     0.00396187     0.97603085     0            
    205000   0.97880994     0.0039502699   0.96793427     0            
    206000   0.97126312     0.0044934511   0.96047131     0            
    207000   1.0486858      0.0036453348   1.0360145     -0.0010191737 
    208000   0.95824642     0.0047604574   0.94763524     3.6007162e-05
    209000   0.99114234     0.0048669319   0.9754168     -0.0047128517 
    210000   1.0090939      0.0043433914   0.99764038    -0.00024137582
    211000   1.0570822      0.0042743106   1.0432396     -0.0020972282 
    212000   0.99123324     0.0049200831   0.97838185    -0.0018376908 
    213000   0.96181114     0.0035374001   0.95112435     0            
    214000   1.0226464      0.0044125378   1.0112836      0            
    215000   0.99861389     0.0051566164   0.98751818     0            
    216000   0.98215282     0.0038239504   0.9711759     -6.411401e-05 
    217000   0.9509246      0.0039974544   0.94035877     0            
    218000   1.0253668      0.0040086651   1.015021       0.0010472054 
    219000   0.99022496     0.0040317838   0.97872505    -0.00049740349
    220000   1.0590799      0.0038092795   1.0473445      3.2217238e-05
    221000   1.0987642      0.0045906252   1.0865557      0            
    222000   1.0114996      0.0044543752   1.0002607      0            
    223000   0.96566939     0.0038980057   0.95493973     0            
    224000   1.0042722      0.0043375946   0.99311363     0            
    225000   1.0228957      0.004089874    1.0115302      0            
    226000   0.97335408     0.004189616    0.9618382     -0.00070084062
    227000   1.0503185      0.0049586982   1.0484095      0.0097611638 
    228000   1.0277894      0.0041975555   1.0163695      0            
    229000   1.0803945      0.0037719231   1.0683901      0            
    230000   0.98161838     0.0033683823   0.97071151     0            
    231000   1.0258159      0.0038341099   1.0174228      0.0030048194 
    232000   1.0671969      0.0042351159   1.0553391      0            
    233000   1.002729       0.0037337274   0.99158761     0            
    234000   0.94406552     0.003929112    0.93351843    -5.7466885e-05
    235000   0.99582223     0.0043129009   0.98475754     0            
    236000   1.0898105      0.004325567    1.0777015      0            
    237000   1.0666681      0.0039470261   1.0548163      0            
    238000   0.99956206     0.0049792208   0.9868561     -0.0015997207 
    239000   0.91763327     0.0038157875   0.9062146     -0.0012227388 
    240000   0.99290547     0.0050802442   0.98155055    -0.00032263915
    241000   0.92826989     0.0035152548   0.91763091    -0.00032486279
    242000   0.97004203     0.00355813     0.95696834    -0.0022954486 
    243000   0.9321249      0.0035995674   0.92014311    -0.001624848  
    244000   0.92979327     0.0040472097   0.91740768    -0.0020545487 
    245000   0.95231101     0.003417023    0.94157105    -0.00015872535
    246000   0.98913803     0.003564429    0.97865083     0.00050322231
    247000   1.0754275      0.0051879818   1.0620019     -0.0014764432 
    248000   0.98202984     0.0044526453   0.96884436    -0.0022740388 
    249000   1.0877302      0.0035049046   1.0730782     -0.002566158  
    250000   0.97550208     0.0038210493   0.96266233    -0.0020008361 
    251000   0.93807081     0.0038156854   0.92680563    -0.00084217031
    252000   0.95558472     0.0035510053   0.94321602    -0.0017510877 
    253000   1.0108653      0.0040753485   0.99743937    -0.0021940741 
    254000   1.015855       0.0053874532   1.0032768     -0.0012908653 
    255000   0.94644173     0.0037494008   0.93592571     0            
    256000   0.94269927     0.0042398304   0.93126244    -0.00096239581
    257000   1.0003946      0.003005241    0.98927913     0            
    258000   1.0226379      0.0046182632   1.0109335     -0.00034181222
    259000   1.0229823      0.0042515126   1.0116158      0            
    260000   0.91774103     0.0035534449   0.9075439      0            
    261000   1.0006036      0.0041848822   0.99327853     0.003792769  
    262000   0.94975867     0.0042106007   0.93920579     0            
    263000   0.94341032     0.0030317354   0.93300637     7.8388126e-05
    264000   1.0004627      0.0042165814   0.98934642     0            
    265000   1.0363642      0.0029333023   1.024849       0            
    266000   1.0215995      0.0042243558   1.009266      -0.00098236116
    267000   0.9395639      0.0041771831   0.9291243      0            
    268000   0.98036443     0.0040081619   0.96947149     0            
    269000   0.96859686     0.0031116547   0.95939584     0.0015611703 
    270000   1.0494581      0.0036644789   1.0377974      0            
    271000   1.0347321      0.0034160939   1.0232351      0            
    272000   0.94834305     0.0037519519   0.93786717     6.1261516e-05
    273000   1.0428196      0.0032798211   1.031174      -5.8743593e-05
    274000   1.0002291      0.0043343513   0.9893744      0.00025898882
    275000   0.98227254     0.0047681319   0.9713584      0            
    276000   1.0110736      0.0036881906   0.99983943     0            
    277000   0.88711472     0.0031031237   0.87725789     0            
    278000   1.0386468      0.0047814367   1.0271063      0            
    279000   0.96523441     0.0034196176   0.95489374     0.00038415763
    280000   1.0037292      0.0040723308   0.99257665     0            
    281000   1.0677159      0.0044421938   1.0560819      0.00022950639
    282000   1.0301661      0.0039987287   1.0187198      0            
    283000   0.915          0.0045633787   0.90483333     0            
    284000   1.0263319      0.0041049354   1.0149282      0            
    285000   1.0259655      0.0051515905   1.0145658      0            
    286000   0.99751266     0.0044733415   0.98642919     0            
    287000   1.0095772      0.0046566528   0.99835964     0            
    288000   0.93041657     0.0041398072   0.91922814    -0.00085046721
    289000   0.95540779     0.0037317905   0.94817605     0.003383903  
    290000   1.0023238      0.0030705547   0.99118684     0            
    291000   0.95363289     0.0040522246   0.94190321    -0.0011337618 
    292000   0.98799012     0.0046842958   0.97646741    -0.00054503868
    293000   1.0080649      0.0048698344   0.9968642      0            
    294000   0.9599798      0.0038442291   0.94931336     0            
    295000   1.0326348      0.0048805233   1.021161       0            
    296000   0.91085947     0.0032847572   0.90073881     0            
    297000   1.0300072      0.0031120489   1.0185627      0            
    298000   1.0627105      0.0039020136   1.0484016     -0.0025010468 
    299000   0.96391147     0.0031848876   0.95092628    -0.0022750621 
    300000   0.99829678     0.0037429833   0.9872046      0            
    301000   1.0136624      0.0035890912   1.0023995      0            
    302000   0.97887263     0.0039026203   0.96800158     5.3118922e-06
    303000   0.99983432     0.0053134665   0.986441      -0.0022840486 
    304000   0.98503652     0.0039951083   0.97409167     0            
    305000   1.0105201      0.0044218704   0.99929213     0            
    306000   0.99807988     0.0041509637   0.9869901      0            
    307000   1.0479089      0.0039770717   1.0362655      0            
    308000   0.99435434     0.0036058736   0.98330596     0            
    309000   0.91780631     0.0041987382   0.90761068     2.2190581e-06
    310000   0.99556969     0.0039353792   0.9845078      0            
    311000   0.9977203      0.0040708519   0.98663452     0            
    312000   1.0400006      0.0051555383   1.0284451      0            
    313000   0.99726574     0.002737678    0.98618501     0            
    314000   0.9323222      0.0035249749   0.92196306     0            
    315000   1.061819       0.0053242686   1.0501988      0.00017777105
    316000   0.96584994     0.0036834456   0.9562344      0.0011161192 
    317000   0.91519261     0.0032790393   0.90453058    -0.00049322284
    318000   1.0536261      0.0035167222   1.0419192      0            
    319000   1.0685993      0.0025162704   1.054557      -0.002168988  
    320000   0.97145859     0.0040749434   0.96066461     0            
    321000   0.92207798     0.0037365218   0.91073349    -0.0010991829 
    322000   1.0192643      0.0043408937   1.0079391      0            
    323000   1.0701432      0.0052080566   1.0582527      0            
    324000   0.93983815     0.0032955436   0.9293955      0            
    325000   0.99177455     0.0038454141   0.98075484     0            
    326000   1.0900088      0.005877587    1.0778976      0            
    327000   1.0296586      0.0044672438   1.0182179      0            
    328000   1.0127814      0.0049844786   1.0003222     -0.0012060578 
    329000   0.98523906     0.0038235474   0.97236849    -0.0019234706 
    330000   1.0676432      0.0047429524   1.0572273      0.0014468115 
    331000   1.0052195      0.0036212276   0.99298008    -0.0010702668 
    332000   1.0552041      0.0050726512   1.0434796      0            
    333000   1.016628       0.0052551037   1.0064926      0.0011605276 
    334000   1.0113787      0.0045056658   1.0001412      0            
    335000   0.9494577      0.0041559579   0.93890817     0            
    336000   1.0290819      0.0041471969   1.0176476      0            
    337000   1.0515938      0.0043481533   1.0399095      0            
    338000   1.0620746      0.0047750997   1.0502737      0            
    339000   1.0458453      0.0040526156   1.0342248      0            
    340000   1.0402863      0.0047906722   1.0287276      0            
    341000   0.99401405     0.0038918999   0.98296945     0            
    342000   0.95918481     0.0037870061   0.9485272      0            
    343000   1.0623046      0.0039278992   1.0505012      0            
    344000   1.1299786      0.0043695157   1.1174233      0            
    345000   0.94216262     0.0041680822   0.93169414     0            
    346000   1.0034164      0.0037097054   0.99208751    -0.00017980412
    347000   1.0842692      0.0038334658   1.0722217      0            
    348000   1.0130682      0.0044370913   1.0019395      0.00012755711
    349000   1.0044405      0.005181637    0.99534205     0.0020620069 
    350000   0.92150924     0.0035652349   0.90996431    -0.0013059418 
    351000   0.96505681     0.0048599124   0.95205543    -0.0022785287 
    352000   1.0951216      0.004436245    1.0809951     -0.0019585311 
    353000   0.99739436     0.0032841496   0.98585074    -0.00046145688
    354000   0.93227539     0.0037299078   0.91978463    -0.0021321483 
    355000   0.98316745     0.0036932379   0.97215225    -9.1114631e-05
    356000   1.0095678      0.0044059103   0.99835042     0            
    357000   1.0022933      0.0045235634   0.99199905     0.00084235677
    358000   0.95335695     0.0046561566   0.94276409     0            
    359000   1.0034772      0.0041174761   0.99362118     0.0012937478 
    360000   0.97557166     0.003406793    0.96454966    -0.00018231426
    361000   1.0763021      0.0045710997   1.0638472     -0.00049606514
    362000   1.0578502      0.004953637    1.0460963      0            
    363000   0.99284431     0.0047671186   0.9818127      0            
    364000   0.95205299     0.004293345    0.94131622    -0.00015840533
    365000   0.99026984     0.0041073826   0.97926684     0            
    366000   1.0240188      0.0038284383   1.0126408      0            
    367000   1.0186823      0.0028851375   1.0067058     -0.00065774699
    368000   0.93327959     0.0043231877   0.92291577     5.9536245e-06
    369000   0.88282817     0.0025008288   0.87301897     0            
    370000   0.97552247     0.0031287147   0.96471463     3.1304182e-05
    371000   1.0321731      0.0041531966   1.0207536      4.9054926e-05
    372000   1.0459069      0.0046585391   1.0342857      0            
    373000   0.97599482     0.0033409777   0.96515044     0            
    374000   0.98775005     0.0036801447   0.97781475     0.0010396935 
    375000   1.0383808      0.0034587898   1.0251486     -0.0016946763 
    376000   0.98439142     0.0041455908   0.97209569    -0.0013580401 
    377000   0.96124991     0.0038727854   0.94906827    -0.0015010873 
    378000   1.0316252      0.0047861578   1.0194746     -0.00068802992
    379000   0.99281989     0.004602124    0.98178856     0            
    380000   0.96432054     0.004175609    0.95360586     0            
    381000   0.99696368     0.0044135705   0.98588631     0            
    382000   0.99397319     0.0039897607   0.98292905     0            
    383000   1.0540875      0.0046493195   1.0423754      0            
    384000   1.0433568      0.0039498096   1.0298221     -0.0019418558 
    385000   0.99840524     0.0036527156   0.98518333    -0.0021285194 
    386000   1.0720914      0.0042735022   1.0601792      0            
    387000   0.94482145     0.0039221077   0.93432343     0            
    388000   0.98046956     0.0032859213   0.96957546     0            
    389000   1.002458       0.0041887689   0.99131957     0            
    390000   1.0159418      0.0046312431   1.0046535      0            
    391000   1.1012083      0.0056539417   1.0889726      0            
    392000   0.99908702     0.0031831488   0.98798606     0            
    393000   1.0324902      0.003788265    1.0202915     -0.00072657943
    394000   1.0750266      0.0051149016   1.0608035     -0.002278338  
    395000   1.0209043      0.0041635475   1.0108348      0.0012738556 
    396000   0.94304057     0.0041294906   0.93256234     0            
    397000   1.0006016      0.0046308392   0.98809503    -0.001388781  
    398000   0.9648565      0.0038635413   0.95413587     0            
    399000   0.91785138     0.0043438725   0.90765303     0            
    400000   1.0722484      0.0043145416   1.0603346      0            
    401000   1.0497803      0.0039218948   1.0381161      0            
    402000   0.94888534     0.0033675135   0.93834217     0            
    403000   1.0509469      0.004225859    1.0387168     -0.00055298213
    404000   0.97481796     0.0020966088   0.96352407    -0.0004625846 
    405000   1.052726       0.0047141882   1.0410274     -1.6595853e-06
    406000   1.0228216      0.00348981     1.0100807     -0.0013761977 
    407000   0.99705086     0.0047335121   0.98597252     0            
    408000   1.0165003      0.0036413512   1.0042047     -0.0010011662 
    409000   1.0498891      0.0041745693   1.0382236      0            
    410000   0.97120378     0.0036926029   0.96041263     0            
    411000   0.93729709     0.0039190176   0.92688267     0            
    412000   0.99112176     0.0045474077   0.98010929     0            
    413000   1.0453266      0.0039105105   1.0337118      0            
    414000   0.97494506     0.0041124458   0.96411234     0            
    415000   0.98033187     0.0038214648   0.96943929     0            
    416000   1.0617791      0.0041170125   1.048685      -0.0012965793 
    417000   0.93457744     0.0034424559   0.92419325     0            
    418000   1.0424946      0.0043972639   1.030659      -0.00025227367
    419000   0.91318258     0.0039019603   0.9030361      0            
    420000   0.97816606     0.0046207782   0.96729755     0            
    421000   1.0680541      0.0044637038   1.0566359      0.00044908616
    422000   1.0245417      0.0047594528   1.0109266     -0.0022313892 
    423000   0.97564502     0.0033699026   0.96480452     0            
    424000   0.98096643     0.0035512588   0.96869488    -0.0013719193 
    425000   1.0289925      0.0031940626   1.0175593      0            
    426000   0.97743047     0.0040536606   0.9674315      0.00086136636
    427000   0.93381055     0.0040151725   0.92343487     0            
    428000   1.0562386      0.0041992127   1.0445027      0            
    429000   0.92380841     0.0040898425   0.91347277    -7.1098825e-05
    430000   0.98937546     0.0041067269   0.97904596     0.00066355299
    431000   0.96656876     0.0038858916   0.95581794    -1.1173838e-05
    432000   1.0527413      0.0040905788   1.0409544     -8.9763754e-05
    433000   0.89634747     0.0033546573   0.88539416    -0.00099389539
    434000   0.96804949     0.0047709162   0.95729338     0            
    435000   1.0377365      0.0047838793   1.0221473     -0.0040588046 
    436000   0.98928228     0.0038511032   0.97829025     0            
    437000   1.0629872      0.005163213    1.0508949     -0.00028138518
    438000   0.93150117     0.0043839166   0.92115116     0            
    439000   1.0407443      0.0036788193   1.0273527     -0.0018278045 
    440000   1.008488       0.0038806803   0.99728258     0            
    441000   0.99202773     0.0037039254   0.98022233    -0.00078286845
    442000   0.99458913     0.0047886103   0.98353814     0            
    443000   1.0612958      0.0041352751   1.0483338     -0.0011697667 
    444000   0.98256468     0.0043851395   0.9716473      0            
    445000   1.0117584      0.003826181    1.0016282      0.0011115758 
    446000   0.98221664     0.0046646909   0.97045578    -0.00084734575
    447000   1.0759648      0.0046151413   1.0640395      2.9834003e-05
    448000   0.93393733     0.0032686929   0.92320158    -0.0003586671 
    449000   0.91718932     0.0037789043   0.90699833     0            
    450000   1.0035874      0.0040531011   0.99243643     0            
    451000   0.91631991     0.0035279949   0.90475963    -0.0013789456 
    452000   1.0371343      0.0042933586   1.026282       0.00067140241
    453000   1.0277167      0.0041538675   1.015902      -0.00039564578
    454000   1.0207108      0.0039864821   1.0093696      0            
    455000   0.99509974     0.0049427067   0.98405321     1.0131398e-05
    456000   0.98366629     0.0045070381   0.97052536    -0.0022113043 
    457000   1.0819426      0.0039758149   1.0706575      0.00073655368
    458000   1.0277744      0.0037652935   1.0163547      0            
    459000   0.99151818     0.0040509806   0.98104687     0.0005455573 
    460000   0.95439541     0.0036302511   0.94215968    -0.0016313398 
    461000   1.0799226      0.0034878468   1.068297       0.00037354176
    462000   0.9605527      0.0029153953   0.94766752    -0.0022123698 
    463000   0.96368167     0.0037329553   0.95297563     1.5356431e-06
    464000   0.91097484     0.0028869957   0.90085289     0            
    465000   0.97952188     0.0045678039   0.9686383      0            
    466000   0.94849262     0.0045452621   0.93795381     0            
    467000   0.97748074     0.0042676803   0.96661984     0            
    468000   1.0016641      0.0035298739   0.99053448     0            
    469000   1.0740813      0.0036821092   1.0621471      0            
    470000   0.97991988     0.0041596831   0.9677079     -0.0013239816 
    471000   0.97354009     0.0041270953   0.96060958    -0.0021133982 
    472000   1.0505346      0.0035628722   1.038862       0            
    473000   1.0579135      0.004329138    1.0461589      0            
    474000   1.0553068      0.0044762462   1.0428932     -0.00068797843
    475000   1.0167091      0.0032293614   1.0054123      0            
    476000   1.0078691      0.0040597482   0.9966706      0            
    477000   1.0655301      0.0042215077   1.0536909      0            
    478000   0.93881833     0.0046485854   0.92838702     0            
    479000   0.98831085     0.0047542312   0.97732962     0            
    480000   1.0201092      0.0055780564   1.0087746      0            
    481000   1.0271173      0.0040668998   1.0157049      0            
    482000   1.1354292      0.0046864329   1.1207657     -0.0020476524 
    483000   0.96209201     0.0041022395   0.9514021      0            
    484000   1.0067086      0.004420565    0.99597957     0.00045664424
    485000   1.0074813      0.0036863644   0.99428306    -0.0020040039 
    486000   0.9791012      0.0034806209   0.9682223      0            
    487000   0.98579873     0.0035857877   0.97240599    -0.0024394238 
    488000   0.96024903     0.0032010977   0.94957959     0            
    489000   0.98037474     0.004608756    0.96981564     0.0003339518 
    490000   1.0796607      0.0048492438   1.0676644      0            
    491000   0.98233268     0.004901669    0.97141787     0            
    492000   0.9885641      0.0047234882   0.97758005     0            
    493000   1.0044876      0.0043861714   0.99299854    -0.00032805784
    494000   1.0117481      0.0035434814   0.99632266    -0.0041837997 
    495000   0.94629621     0.0036681966   0.93045005    -0.0053317601 
    496000   0.94497121     0.0050561748   0.93447153     0            
    497000   1.0331844      0.0033429856   1.0221273      0.0004226462 
    498000   1.013834       0.0047690361   1.0025692      0            
    499000   1.0594497      0.0047978152   1.047678       0            
    500000   0.9923209      0.0039090886   0.98129511     0            
    501000   1.0708217      0.0047465987   1.0589236      0            
    502000   1.0342605      0.0041954477   1.0227687      0            
    503000   0.98590423     0.0040078051   0.97494973     0            
    504000   0.98835449     0.0043645888   0.9781115      0.00073872677
    505000   0.95517276     0.0041809487   0.94455973     0            
    506000   1.0123399      0.0040592163   1.0010917      0            
    507000   1.0355918      0.0044883068   1.0219693     -0.0021158688 
    508000   0.95863317     0.0035039755   0.94778743    -0.00019426264
    509000   1.0256544      0.0039324223   1.0135428     -0.00071541485
    510000   1.0138409      0.0042246405   1.0010979     -0.001478073  
    511000   0.99843954     0.0034646928   0.98643821    -0.00090756404
    512000   1.0589734      0.0046795151   1.0472071      0            
    513000   1.0523349      0.0035797593   1.0391357     -0.001506615  
    514000   1.0607725      0.0041385478   1.0488383     -0.00014783956
    515000   0.98702865     0.0043346525   0.97698653     0.00092486096
    516000   1.0157893      0.0048150998   1.0045028      0            
    517000   1.0306683      0.0045798769   1.0177048     -0.001511583  
    518000   0.99003028     0.0040377944   0.97902994     0            
    519000   0.96177996     0.003979486    0.95109352     0            
    520000   1.0685812      0.0050183053   1.0549847     -0.0017233217 
    521000   0.94813015     0.0034156747   0.93556622    -0.0020291505 
    522000   0.93398715     0.0045669925   0.9231101     -0.00049942096
    523000   1.0376344      0.0044126052   1.0261258      2.06097e-05  
    524000   1.0769401      0.0043832876   1.0649741      0            
    525000   0.96973027     0.0041487663   0.95895549     0            
    526000   0.9814527      0.0043205136   0.97054767     0            
    527000   1.0651731      0.0048101925   1.0533379      0            
    528000   1.0177776      0.003878857    1.0064689      0            
    529000   0.94035127     0.0043593464   0.92990292     0            
    530000   0.95760963     0.0040279962   0.94696952     0            
    531000   1.0199806      0.0042820688   1.0086474      0            
    532000   0.98586341     0.0039720437   0.97490937     0            
    533000   1.0147373      0.0040069656   1.0010732     -0.0023892583 
    534000   0.91693311     0.0036740008   0.90674496     0            
    535000   1.0708812      0.0040234194   1.0589069     -7.5630479e-05
    536000   0.98215524     0.0038893429   0.97124241     0            
    537000   1.0379747      0.0050012017   1.0264417      0            
    538000   1.0188386      0.0038207304   1.0075182      0            
    539000   0.95572692     0.003697257    0.94510773     0            
    540000   1.0079182      0.0036459221   0.99522274    -0.0014963182 
    541000   1.0309747      0.0041291884   1.0195195      0            
    542000   0.99653274     0.00479321     0.98412051    -0.0013396427 
    543000   1.0511515      0.004356563    1.039472       0            
    544000   1.0109068      0.0040674244   0.99966441    -1.0093312e-05
    545000   0.9927292      0.0052332857   0.98169887     0            
    546000   0.9847471      0.0048401617   0.97384726     4.1798819e-05
    547000   1.0349527      0.0035740905   1.0234532      0            
    548000   1.0529985      0.0046483816   1.0412986      0            
    549000   1.0049071      0.0046265813   0.99374151     0            
    550000   1.118244       0.0046540742   1.1041554     -0.0016636473 
    551000   0.95044531     0.0028848441   0.9398848      0            
    552000   0.94453582     0.003040448    0.93404098     0            
    553000   1.0686831      0.0040498163   1.0568089      4.1287442e-08
    554000   0.9990499      0.0035823884   0.98807373     0.00012439094
    555000   1.0074145      0.0032667814   0.996221       0            
    556000   1.0229662      0.0045448348   1.0115999      0            
    557000   1.0749655      0.0045537122   1.0630214      0            
    558000   0.97887771     0.0032707725   0.96800129     0            
    559000   1.0121811      0.0043398416   1.0009347      0            
    560000   1.0310042      0.0038278552   1.0195486      0            
    561000   1.0295988      0.003646134    1.0181588      0            
    562000   0.99234234     0.0025576468   0.98131632     0            
    563000   1.0060794      0.0046527423   0.99276069    -0.0021400249 
    564000   1.0499056      0.0052108807   1.038372       0.00013201194
    565000   0.97976619     0.0043590199   0.9688799      0            
    566000   1.0363457      0.0050352267   1.0232701     -0.0015606843 
    567000   0.94303266     0.004254332    0.93255452     0            
    568000   0.99885512     0.0044088047   0.98663532    -0.0011214031 
    569000   0.97533299     0.0034574228   0.96221878    -0.0022771755 
    570000   1.0051564      0.0034750441   0.99400913     2.110323e-05 
    571000   1.0370846      0.0049385782   1.023762      -0.0017994313 
    572000   1.0084938      0.0035521626   0.99728831     0            
    573000   1.0478186      0.0057853921   1.0339793     -0.0021968379 
    574000   1.0257804      0.0033170682   1.0143828      0            
    575000   1.0902045      0.0035031922   1.0780912      0            
    576000   1.0142547      0.0032052354   1.0028826     -0.0001025531 
    577000   1.0432673      0.0045745854   1.0316755      0            
    578000   0.95763881     0.0035106105   0.94699838     0            
    579000   0.94473335     0.0043761312   0.93423631     0            
    580000   0.85148115     0.0029611215   0.84202025     0            
    581000   1.0030847      0.0043509177   0.99193932     0            
    582000   1.0857699      0.0043620308   1.0737058      0            
    583000   1.0683173      0.0037930299   1.0564471      0            
    584000   0.95730314     0.0043479071   0.94666644     0            
    585000   0.88339084     0.0040883666   0.87360844     3.3053629e-05
    586000   1.0177371      0.0048704126   1.006429       0            
    587000   1.0991933      0.0043305674   1.0869801      0            
    588000   1.025094       0.0038620462   1.013704       0            
    589000   1.0952664      0.0052436552   1.0830967     -1.0950969e-07
    590000   1.0214083      0.0033813049   1.0100593      0            
    591000   1.0755205      0.0038734696   1.0635703      0            
    592000   0.8571571      0.0041966117   0.84811378     0.00048064956
    593000   1.0447149      0.0043252179   1.0328669     -0.00024006101
    594000   0.96342798     0.0044660383   0.95100312    -0.001720101  
    595000   0.94394953     0.0040328328   0.9334612      0            
    596000   1.0315217      0.0037239511   1.0200604      0            
    597000   1.0500537      0.0045806955   1.0383865      0            
    598000   1.0044978      0.0036966171   0.99140655    -0.0019302137 
    599000   0.98846982     0.0040776737   0.97748682     0            
    600000   1.1076566      0.0046396857   1.0953493      0            
    601000   1.0057341      0.0036575558   0.9945593      0            
    602000   1.0242722      0.0047653188   1.0128913      0            
    603000   0.95208276     0.0031750417   0.94150406     0            
    604000   0.92161812     0.0038154647   0.90917282    -0.0022051014 
    605000   0.96436086     0.0040750607   0.95364574     0            
    606000   1.0145623      0.0035377584   1.0032894      0            
    607000   0.98399865     0.0046594888   0.97306534     0            
    608000   1.0369306      0.0032626934   1.0255731      0.00016393607
    609000   0.96278113     0.0043161389   0.95208356     0            
    610000   0.98700249     0.0030894505   0.9760358      0            
    611000   0.94890648     0.0050574663   0.93730291    -0.0010601618 
    612000   1.0199027      0.0038345417   1.0064544     -0.0021160588 
    613000   1.0075742      0.0039381043   0.99636676    -1.2204095e-05
    614000   1.011549       0.0049646351   0.99874335    -0.0015662625 
    615000   1.0472539      0.0051730614   1.0332381     -0.0023796829 
    616000   1.0621689      0.0050907646   1.0505813      0.00021423374
    617000   0.93003872     0.0038188521   0.92017884     0.00047387721
    618000   1.0035682      0.0041672243   0.99241748     0            
    619000   1.0745362      0.0043683916   1.0626056      8.738374e-06 
    620000   0.9837701      0.0047154969   0.97283932     0            
    621000   0.94382604     0.0034516261   0.93340369     6.4604766e-05
    622000   0.89037584     0.0034413464   0.88048278     0            
    623000   0.90766367     0.0030436687   0.89562229    -0.0019562298 
    624000   1.0179479      0.0042463588   1.0045683     -0.0020691179 
    625000   1.0015186      0.0049257047   0.98949223    -0.00089834034
    626000   1.0187202      0.0041692699   1.0040505     -0.0033506134 
    627000   1.0510888      0.0033668339   1.03941        0            
    628000   1.0278705      0.0035482665   1.0164498      0            
    629000   0.96453673     0.0038331181   0.95161607    -0.0022035905 
    630000   1.0358887      0.0044537818   1.0243788      0            
    631000   0.97780015     0.0049232746   0.96449777    -0.0024379329 
    632000   1.0128297      0.0039820256   1.0008429     -0.00073318921
    633000   1.0222344      0.004225676    1.0108762      0            
    634000   1.0368072      0.0043052677   1.0244369     -0.0008502686 
    635000   1.0160394      0.0044767679   1.0027267     -0.0020234193 
    636000   0.97644734     0.0046958329   0.96559792     0            
    637000   1.0375621      0.003926396    1.0253323     -0.0007013343 
    638000   1.0139213      0.0044972489   1.008708       0.0060524701 
    639000   1.0091915      0.0048100145   0.99797828     0            
    640000   0.95382035     0.0034860167   0.94322235     0            
    641000   1.0571133      0.0036760145   1.0453676      0            
    642000   0.90193111     0.0038108804   0.89190966     0            
    643000   0.9906683      0.0037450959   0.97937432    -0.00028655794
    644000   0.94328938     0.0041957558   0.93613948     0.0033310905 
    645000   0.96900415     0.0035247649   0.95823744     0            
    646000   0.97910212     0.0034788775   0.97006303     0.0018398143 
    647000   1.0251869      0.0044668873   1.0137959      0            
    648000   1.020288       0.0044015203   1.0089515      0            
    649000   0.99952691     0.0036495323   0.98842105     0            
    650000   1.008486       0.004410572    0.99978721     0.002506567  
    651000   0.92425042     0.0043546835   0.91609569     0.0021147154 
    652000   1.0775438      0.0040516242   1.0655711      0            
    653000   1.0546565      0.0036325666   1.0429381      0            
    654000   1.0405022      0.0046093938   1.028941       0            
    655000   1.012139       0.004086956    1.0008931      0            
    656000   0.99763176     0.0041717624   0.98681184     0.00026488041
    657000   1.0042465      0.0039518563   0.99308824     0            
    658000   0.97866798     0.0034611487   0.96779389     0            
    659000   1.0934468      0.0043612665   1.0812974      0            
    660000   1.0647116      0.0043835738   1.05288       -1.4462856e-06
    661000   1.1172846      0.0049351748   1.1042054     -0.00066488946
    662000   1.0099859      0.0042927841   0.9986437     -0.00012017803
    663000   1.0597811      0.0045142705   1.0479679     -3.7880592e-05
    664000   0.88965941     0.0032087295   0.87977431     0            
    665000   0.99348927     0.004037585    0.9824505      0            
    666000   0.99247472     0.0042517374   0.98107552    -0.00037170946
    667000   0.9854172      0.0038298662   0.97446812     0            
    668000   0.98852401     0.0040806263   0.97732754    -0.00021287514
    669000   1.1107475      0.0051868027   1.0984058      0            
    670000   1.0593089      0.0047848709   1.0475388      0            
    671000   1.0057106      0.0049581468   0.99227726    -0.00225876   
    672000   0.94772138     0.0035791216   0.9368711     -0.00032004413
    673000   0.92199442     0.0033777358   0.91175004     0            
    674000   1.0248336      0.0034376964   1.0111866     -0.0022600058 
    675000   1.0490049      0.00434584     1.0373493      0            
    676000   1.0194514      0.0031992104   1.0081242      0            
    677000   0.93783799     0.0039237843   0.92652989    -0.00088767172
    678000   1.0023617      0.0041423046   0.99122437     0            
    679000   0.96099954     0.0038365367   0.94792376    -0.0023980033 
    680000   0.98366474     0.004504502    0.97273513     0            
    681000   1.0071746      0.0038389323   0.99367796    -0.0023058439 
    682000   0.94459068     0.0033459195   0.93409523     0            
    683000   1.0416336      0.0043955581   1.0300599      0            
    684000   0.93054536     0.0044832242   0.92020597     0            
    685000   1.0552991      0.0042728406   1.0421335     -0.0014401178 
    686000   1.0489946      0.0048826884   1.0373379     -1.1600991e-06
    687000   1.0033094      0.0040711257   0.99217125     9.6812894e-06
    688000   0.99202758     0.0035415739   0.98100505     0            
    689000   1.0404858      0.0038015878   1.0292073      0.00028240033
    690000   1.0313321      0.0046597515   1.0180686     -0.0018042868 
    691000   0.9617935      0.0036269998   0.9511069      0            
    692000   0.93176497     0.0040405579   0.92141203     0            
    693000   0.91387093     0.0035283151   0.9010231     -0.0026937094 
    694000   0.99525752     0.0041304883   0.98199707    -0.0022020334 
    695000   0.97562648     0.004197961    0.96478618     0            
    696000   1.0628834      0.0038902579   1.0510736      0            
    697000   1.0179995      0.0038314749   1.0036804     -0.0030079872 
    698000   0.96220828     0.0034745335   0.95151708     0            
    699000   1.1036462      0.0048350777   1.0909408     -0.00044264956
    700000   0.98677252     0.0033033889   0.97549677    -0.00031161274
    701000   1.0135642      0.0038193945   1.0023024      0            
    702000   1.0144797      0.0038814809   1.0027816     -0.00042611704
    703000   1.0373101      0.0053559833   1.0248752     -0.00090919635
    704000   1.0121554      0.005015829    1.0008754     -3.3803015e-05
    705000   0.97914253     0.0036775879   0.96829427     3.1099057e-05
    706000   1.0148353      0.003953098    1.0035593      0            
    707000   1.0662904      0.0043021689   1.0564035      0.0019607355 
    708000   1.0105062      0.0034084121   0.9992572     -2.1169425e-05
    709000   1.0813553      0.0038067493   1.0669735     -0.0023667438 
    710000   0.99637779     0.004094562    0.98530943     2.497874e-06 
    711000   0.96326269     0.0042367021   0.95034349    -0.0022162872 
    712000   0.96576712     0.0042534642   0.95136878    -0.0036675912 
    713000   1.0370241      0.0043812427   1.0255016      0            
    714000   1.0101126      0.0042061792   0.99725659    -0.0016325796 
    715000   0.99146674     0.0038022404   0.98045044     0            
    716000   0.98773956     0.004863663    0.97819678     0.0014321076 
    717000   0.93578792     0.004323595    0.92539028     0            
    718000   0.95913519     0.0040237031   0.94847813     0            
    719000   0.97099549     0.00351424     0.96020665     0            
    720000   1.0609848      0.0043655644   1.0491961      0            
    721000   1.1124509      0.0038962475   1.0992237     -0.00086662654
    722000   0.90353827     0.0043747984   0.89349895     0            
    723000   1.010456       0.0034592164   0.99922876     0            
    724000   0.92958823     0.0046252914   0.91925947     0            
    725000   0.97462865     0.0039567252   0.96489183     0.0010923844 
    726000   0.99824323     0.0040415906   0.98715164     0            
    727000   1.0143373      0.0045258585   1.0030669      0            
    728000   1.006772       0.0038562495   0.99558566     0            
    729000   1.0341417      0.0040329834   1.0226513      0            
    730000   1.0471046      0.0046094147   1.0354701      0            
    731000   1.0195834      0.0046848471   1.0125429      0.0042881515 
    732000   0.90379954     0.003224541    0.89375732     0            
    733000   1.0100728      0.0039906811   0.99861035    -0.00023944909
    734000   0.95178193     0.0039975375   0.94049886    -0.00070771735
    735000   1.0063398      0.0043415492   0.9931643     -0.0019939596 
    736000   1.0873753      0.004974156    1.0752934      0            
    737000   1.0102403      0.0036748098   1.0016722      0.0026567874 
    738000   0.94211083     0.0048317065   0.93131547    -0.00032745462
    739000   1.0646084      0.0040240592   1.0517189     -0.0010604633 
    740000   0.97499784     0.0047646733   0.96633832     0.0021737897 
    741000   0.97017567     0.003544075    0.95724622    -0.0021497191 
    742000   0.98032186     0.0034353809   0.97104012     0.0016107278 
    743000   1.004861       0.0038749125   0.99329743    -0.00039842671
    744000   0.90647727     0.0030112478   0.8964053      0            
    745000   0.97381478     0.0038196256   0.96153864    -0.0014559751 
    746000   1.0445009      0.0039739967   1.031497      -0.0013983642 
    747000   0.93376664     0.0036211365   0.92339146     0            
    748000   0.87497118     0.003582719    0.86524928     0            
    749000   1.0333061      0.0047647461   1.021825       0            
    750000   1.0218544      0.0047996335   1.0087412     -0.0017592223 
    751000   0.98661256     0.0042731103   0.9756502      0            
    752000   1.0570771      0.004740788    1.0453318      0            
    753000   1.0547992      0.0040632477   1.0447217      0.0016424425 
    754000   0.97343809     0.0032741029   0.96196014    -0.00066197241
    755000   0.94500458     0.0044311322   0.93503758     0.0005330536 
    756000   1.0059449      0.0037585717   0.99460947    -0.00015824893
    757000   1.0565687      0.0048688511   1.0446728     -0.00015621969
    758000   0.94255332     0.0039279445   0.93097254    -0.0011079659 
    759000   0.99087334     0.0044753755   0.98014087     0.0002772335 
    760000   1.0160261      0.0044453287   1.0047369      0            
    761000   1.0208786      0.0038805494   1.0076551     -0.001880409  
    762000   0.98992054     0.0039106709   0.97892143     0            
    763000   1.0597215      0.0047240359   1.0479468      0            
    764000   0.93997435     0.0042089581   0.93216221     0.002632018  
    765000   0.97361665     0.0047156006   0.96279868     0            
    766000   1.0126589      0.003968342    1.0014071      0            
    767000   0.94720646     0.004046364    0.93470053    -0.0019814157 
    768000   1.0492414      0.0037101097   1.0358744     -0.00170882   
    769000   1.0434165      0.004700417    1.0325608      0.00073779918
    770000   0.90543728     0.0032770284   0.89399302    -0.0013838469 
    771000   1.009147       0.0049355068   0.99793424     0            
    772000   0.97380259     0.0036745269   0.96298256     0            
    773000   1.0385816      0.0036873146   1.0270418      0            
    774000   1.0251763      0.0039222683   1.0137403     -4.511537e-05 
    775000   1.140577       0.0050651077   1.1273916     -0.00051240676
    776000   0.95092536     0.0039691004   0.94035952     0            
    777000   0.95826733     0.0044259841   0.94762041     4.9366539e-07
    778000   0.99623545     0.004108791    0.98321462    -0.0019515443 
    779000   0.98112871     0.00422046     0.96797141    -0.0022558656 
    780000   0.99829839     0.0034825063   0.98708051    -0.00012567066
    781000   0.96576287     0.0041861466   0.95434746    -0.00068471138
    782000   1.073594       0.0044144964   1.0636583      0.0019931738 
    783000   0.92082877     0.0038181367   0.90903681    -0.0015605265 
    784000   0.9634654      0.0042125513   0.95173518    -0.0010250452 
    785000   0.9782971      0.0035254977   0.97328092     0.0058537903 
    786000   0.97970181     0.0035213414   0.9679948     -0.00082143683
    787000   0.99401212     0.0045652925   0.98271362    -0.00025392163
    788000   1.049824       0.0034563324   1.0378345     -0.00032472364
    789000   1.0393253      0.0047269652   1.0277772      0            
    790000   1.1548137      0.0044391966   1.1419825      0            
    791000   1.039398       0.0040019712   1.0278492      0            
    792000   1.0487303      0.0038459928   1.0370778      0            
    793000   0.94800253     0.0033959629   0.93746917     0            
    794000   0.96879176     0.0038302609   0.95802741     0            
    795000   0.9875137      0.0049200407   0.97658039     3.9063169e-05
    796000   1.0749617      0.0057326302   1.0630177      0            
    797000   0.98511705     0.0047291411   0.9741713      0            
    798000   1.0760171      0.0051186893   1.0640613      0            
    799000   1.014881       0.0042834129   1.0039641      0.00035949412
    800000   1.0147889      0.0037301255   1.0035135      0            
    801000   0.98946248     0.0048584394   0.97807032    -0.00039813068
    802000   1.0479429      0.0042014695   1.0362991      0            
    803000   0.91997379     0.0043712314   0.90993281     0.00018095612
    804000   0.98695185     0.0040640508   0.97598572     0            
    805000   1.1027319      0.0044318105   1.0904793      0            
    806000   1.0291587      0.0040880916   1.0177236      0            
    807000   1.0314219      0.0044892724   1.0203304      0.00036877841
    808000   1.0706786      0.0043103548   1.0587822      0            
    809000   1.085079       0.0043851327   1.0730748      5.2315056e-05
    810000   1.0089852      0.0038431922   0.99777429     0            
    811000   0.94052316     0.0030292718   0.9300729      0            
    812000   0.97925493     0.0045288554   0.9686996      0.00032527996
    813000   1.0470029      0.0047689403   1.0353696      0            
    814000   0.95547996     0.0036914859   0.94486351     0            
    815000   1.0465858      0.0026320054   1.0328172     -0.0021398538 
    816000   1.0778242      0.0043627958   1.0671354      0.0012870397 
    817000   0.87653216     0.003642138    0.86679291     0            
    818000   0.93671886     0.0033495915   0.92614782    -0.00016305587
    819000   1.038699       0.0038086638   1.0260316     -0.0011263864 
    820000   1.0421103      0.0041315828   1.0305313      0            
    821000   0.94874503     0.003715811    0.94023071     0.0020272911 
    822000   1.0015952      0.0048901832   0.99040834    -5.8062863e-05
    823000   1.0493479      0.0040536262   1.0354063     -0.0022821446 
    824000   0.90057514     0.004058484    0.89051261    -5.6136648e-05
    825000   1.0520871      0.0048380941   1.0429395      0.0025422161 
    826000   1.0446717      0.0045561927   1.0330643      0            
    827000   0.91112071     0.0031983919   0.90099715     0            
    828000   1.0132662      0.003311754    1.0020077      0            
    829000   1.0248086      0.0042889398   1.0134218      0            
    830000   0.97808412     0.0039147259   0.96722889     1.2372978e-05
    831000   0.92854847     0.0036301253   0.91823126     0            
    832000   0.95375923     0.0036261494   0.9431619      0            
    833000   1.0410908      0.0043048078   1.0295231      0            
    834000   1.0435086      0.0035123352   1.0319141      0            
    835000   0.96474221     0.0027703868   0.95311799    -0.00090486336
    836000   0.98321599     0.0043094214   0.97128014    -0.0010112296 
    837000   1.0178988      0.0042719608   1.0065888      0            
    838000   1.0083171      0.0042381616   0.99711356     0            
    839000   1.0448505      0.0043525791   1.033241       0            
    840000   1.0191067      0.0037356162   1.0077833      0            
    841000   0.98046688     0.0048765069   0.9695728      0            
    842000   1.0343088      0.0044778403   1.0228164      0            
    843000   1.0703061      0.0046328462   1.0584138      0            
    844000   0.97343233     0.0039260595   0.96261642     0            
    845000   0.95349892     0.0036216046   0.94397019     0.0010656959 
    846000   1.0281026      0.0036153559   1.0146233     -0.0020559717 
    847000   0.96328023     0.0034014619   0.95257712     0            
    848000   1.0008423      0.0048342522   0.98972178     0            
    849000   1.004081       0.0029185407   0.99292454     0            
    850000   1.0324717      0.0048754      1.021043       4.3164274e-05
    851000   0.96444068     0.003456015    0.95400581     0.00028113902
    852000   0.91297017     0.0028607762   0.9028356      9.5375203e-06
    853000   0.95726746     0.0034498861   0.94663116     0            
    854000   0.99015194     0.0024583432   0.97915025     0            
    855000   0.84141227     0.0033944892   0.83206325     0            
    856000   1.0349237      0.0043480489   1.0234245      0            
    857000   1.0109093      0.0034956819   0.99768366    -0.0019933516 
    858000   1.0206688      0.0044945371   1.009328       0            
    859000   1.0215158      0.005504634    1.0103008      0.00013513197
    860000   0.97182573     0.0038564262   0.96102767     0            
    861000   1.0081904      0.0039963447   0.99698824     0            
    862000   1.0150099      0.0036815452   1.003732       0            
    863000   1.1280057      0.004718741    1.1170897      0.0016173769 
    864000   1.0000628      0.0036767715   0.98929427     0.00034326374
    865000   1.016346       0.0052591895   1.0050533      0            
    866000   1.0235944      0.004412864    1.0122499      2.8824381e-05
    867000   0.97467378     0.004250616    0.96384412     4.5368903e-08
    868000   0.98565222     0.0037586288   0.97470053     0            
    869000   1.0021051      0.0041368747   0.99097058     0            
    870000   1.0097052      0.0048719372   0.99848629     0            
    871000   1.0574888      0.0036118997   1.0457389      0            
    872000   0.94551444     0.0037748887   0.93500872     0            
    873000   1.0465437      0.0039777688   1.0349155      0            
    874000   0.99547454     0.0039313662   0.98441371     0            
    875000   0.94921975     0.003256704    0.93867287     0            
    876000   0.98526259     0.0043580899   0.97431523     0            
    877000   1.0619285      0.003921873    1.0501293      0            
    878000   1.0130908      0.0041142168   1.0018342      0            
    879000   0.98791206     0.0044400728   0.97693526     0            
    880000   0.96745282     0.0039335755   0.95670462     1.2795446e-06
    881000   0.95048196     0.0033970303   0.93992105     0            
    882000   0.98305115     0.0038361976   0.97216606     3.7701976e-05
    883000   0.98944722     0.0030489431   0.97845336     0            
    884000   1.0398037      0.0050396625   1.0292272      0.00097690564
    885000   1.0471582      0.0045340943   1.0356046      8.1395753e-05
    886000   0.97963753     0.0029653739   0.96875267     0            
    887000   1.080631       0.0047008104   1.068624       0            
    888000   0.97525299     0.0043585482   0.96441685     0            
    889000   1.0885928      0.0048276317   1.0772196      0.00072224971
    890000   0.92824454     0.0037963734   0.91830789     0.00037718089
    891000   0.9551536      0.0038244586   0.94454078     0            
    892000   1.0409403      0.0040667157   1.0293743      0            
    893000   0.97442355     0.0048905644   0.96359662     0            
    894000   0.99666036     0.0043698384   0.98558636     0            
    895000   0.87974997     0.0034176924   0.86997497     0            
    896000   1.0776811      0.0049116584   1.0665473      0.00084047941
    897000   0.96800507     0.0044519814   0.95724946     0            
    898000   1.0011774      0.004341985    0.99005324     0            
    899000   0.85006596     0.0031607169   0.84062078     0            
    900000   1.0185117      0.0034604763   1.0071949      0            
    901000   0.99461048     0.0041861485   0.98355926     0            
    902000   0.93213509     0.004912841    0.92177803     0            
    903000   1.0006619      0.004066317    0.98954345     0            
    904000   1.0034285      0.0034140725   0.99227933     0            
    905000   0.89805699     0.0041124337   0.88807858     0            
    906000   1.0342215      0.006027211    1.0227301      0            
    907000   1.0122366      0.0032971443   1.0009895      0            
    908000   1.0411373      0.0047239027   1.0295691      0            
    909000   0.98025122     0.0035685302   0.96935954     0            
    910000   1.018898       0.0050453335   1.0070181     -0.0005588775 
    911000   1.0698475      0.0044874522   1.0576015     -0.00035879967
    912000   1.1374057      0.004643845    1.1247678      0            
    913000   1.0314536      0.0044796492   1.0199931      0            
    914000   1.0767021      0.0045287482   1.0647388      0            
    915000   1.0270325      0.0039071465   1.015621       0            
    916000   1.0269995      0.0038141625   1.0155884      0            
    917000   1.0305333      0.0036096716   1.0190829      0            
    918000   0.89611557     0.0036902908   0.88615873     0            
    919000   0.96839449     0.0047698887   0.95763455     0            
    920000   1.0013787      0.0046631896   0.98800793    -0.0022443882 
    921000   0.99623647     0.0038488      0.98516718     0            
    922000   0.96294236     0.0041718689   0.952243       0            
    923000   0.975402       0.005117561    0.96365171    -0.00091249103
    924000   0.9678179      0.0041651146   0.95472631    -0.0023380557 
    925000   0.93583782     0.0030376468   0.92549116     5.1536555e-05
    926000   0.94590695     0.0044112183   0.9353819     -1.4975018e-05
    927000   0.98771684     0.0040845777   0.97477639    -0.0019658103 
    928000   0.99785237     0.0039900654   0.98429108    -0.0024740424 
    929000   1.0778514      0.0041586367   1.0635651     -0.0023101551 
    930000   0.97692657     0.0035848354   0.96478668    -0.001285156  
    931000   0.95991181     0.0033041361   0.94948014     0.00023401052
    932000   1.1194408      0.005254777    1.1087141      0.0017115318 
    933000   1.0704667      0.0038375549   1.0585727      0            
    934000   1.0242728      0.0053584653   1.0134593      0.00056735694
    935000   0.98304318     0.0037002518   0.97257391     0.00045343611
    936000   1.0608517      0.004913871    1.0490645      0            
    937000   1.0582718      0.0037604556   1.0465132      0            
    938000   1.0443531      0.0037983399   1.0327492      0            
    939000   1.0237266      0.0040050201   1.0123519      0            
    940000   0.96409845     0.0041138381   0.95338624     0            
    941000   0.99259289     0.0039010276   0.98156408     0            
    942000   1.0623033      0.0040982635   1.0504999      0            
    943000   0.87109133     0.0044519786   0.86141253     0            
    944000   1.0086207      0.0045253898   0.99741377     0            
    945000   1.0193642      0.0046530454   1.0080379      0            
    946000   1.1089964      0.0043736589   1.0966742      0            
    947000   0.95675723     0.0037171585   0.9461266      0            
    948000   1.0439302      0.0046930945   1.032331       0            
    949000   1.0377955      0.0047703554   1.0262645      0            
    950000   1.0723356      0.0052962073   1.0604207      0            
    951000   0.96504607     0.0035318694   0.95478705     0.00046371378
    952000   1.0626         0.0053336227   1.0539549      0.0031615867 
    953000   1.0040774      0.0044448021   0.9938301      0.00090913897
    954000   1.0273306      0.0045686515   1.0159159      0            
    955000   1.0255202      0.0039846626   1.0140681     -5.7372531e-05
    956000   0.96738292     0.0047811013   0.95663422     0            
    957000   0.97642569     0.003834161    0.96557651     0            
    958000   0.97468672     0.0044020178   0.96385687     0            
    959000   1.0294579      0.0037305817   1.020237       0.002217491  
    960000   1.0096536      0.0044551222   0.99843522     0            
    961000   1.03136        0.0037552132   1.0199004      0            
    962000   1.0016928      0.0047327848   0.98913535    -0.0014275352 
    963000   1.0140371      0.0034541778   1.0022489     -0.00052111196
    964000   1.0339335      0.0052408326   1.0224454      0            
    965000   1.0477889      0.0041672541   1.0348995     -0.0012473045 
    966000   1.0564174      0.0045919113   1.0446794      0            
    967000   1.0039363      0.0045833873   0.99340245     0.00062094894
    968000   0.97498243     0.0041726628   0.96414929     0            
    969000   1.037129       0.0046873423   1.0256054      0            
    970000   1.143611       0.0055178446   1.1309042      0            
    971000   1.0637154      0.004872491    1.0518963      0            
    972000   0.95113871     0.0041929671   0.9405705      0            
    973000   1.1025693      0.0046831209   1.0907661      0.00044759113
    974000   1.0159909      0.0041455641   1.0047021      0            
    975000   0.98004251     0.0039388525   0.96915315     0            
    976000   1.06342        0.0044838267   1.0516043      0            
    977000   0.97512481     0.0038780143   0.96429009     0            
    978000   0.97810498     0.0040887827   0.96723714     0            
    979000   0.95297615     0.005285483    0.94238753     0            
    980000   0.97788669     0.0042334927   0.96702128     0            
    981000   0.88262401     0.0034457736   0.87291287     9.5797407e-05
    982000   1.0731036      0.0055281703   1.0631354      0.0019551664 
    983000   1.017822       0.0035610034   1.0064471     -6.5778152e-05
    984000   1.0142679      0.0046783993   1.0006095     -0.0023886727 
    985000   1.0662865      0.0049437963   1.0544389      0            
    986000   1.0520254      0.0037093718   1.0403362      0            
    987000   1.004994       0.0050461595   0.99331024    -0.00051718273
    988000   0.99495959     0.004591113    0.98390449     0            
    989000   0.99743752     0.0027743547   0.98635488     0            
    990000   1.0309307      0.0046644188   1.0194759      0            
    991000   0.88190073     0.0033939414   0.87210183     0            
    992000   0.97412946     0.0036980909   0.9633058      0            
    993000   1.0334963      0.0049354915   1.022013       0            
    994000   1.0134488      0.0041250292   1.002002      -0.00018626462
    995000   1.0430081      0.0033984821   1.0313505     -6.8605541e-05
    996000   1.0312071      0.0040700759   1.0195246     -0.00022462934
    997000   1.0164455      0.0041709326   1.0051605      8.8172805e-06
    998000   1.0316801      0.0049442606   1.020217       0            
    999000   1.0281433      0.004983358    1.0167207      1.2646557e-06
   1000000   1.0068788      0.004293378    0.99566688    -2.4370679e-05
Loop time of 16.7528 on 1 procs for 1000000 steps with 405 atoms

Performance: 51573508.977 tau/day, 59691.561 timesteps/s
99.2% CPU use with 1 MPI tasks x no OpenMP threads

MPI task timing breakdown:
Section |  min time  |  avg time  |  max time  |%varavg| %total
---------------------------------------------------------------
Pair    | 0.77962    | 0.77962    | 0.77962    |   0.0 |  4.65
Bond    | 0.04154    | 0.04154    | 0.04154    |   0.0 |  0.25
Neigh   | 3.1524     | 3.1524     | 3.1524     |   0.0 | 18.82
Comm    | 0.85069    | 0.85069    | 0.85069    |   0.0 |  5.08
Output  | 0.31743    | 0.31743    | 0.31743    |   0.0 |  1.89
Modify  | 10.29      | 10.29      | 10.29      |   0.0 | 61.42
Other   |            | 1.321      |            |       |  7.88

Nlocal:            405 ave         405 max         405 min
Histogram: 1 0 0 0 0 0 0 0 0 0
Nghost:             83 ave          83 max          83 min
Histogram: 1 0 0 0 0 0 0 0 0 0
Neighs:              2 ave           2 max           2 min
Histogram: 1 0 0 0 0 0 0 0 0 0

Total # of neighbors = 2
Ave neighs/atom = 0.0049382716
Ave special neighs/atom = 0
Neighbor list builds = 212552
Dangerous builds = 0
Total wall time: 0:00:16
