fix fLANG all langevin 1.0 1.0 1.0 100
neigh_modify exclude molecule/intra all
fix rigidNVE linked_vesicle rigid/nve molecule
  10 rigid bodies with 50 atoms
fix NVE synapsin nve 1.0 1.0 1.0

    ##======================================##
    ## Output
    ##======================================##

thermo 1000
thermo_style custom step temp press etotal epair
thermo_modify flush yes
timestep 0.01

    ##======================================##
    ## Equilibration before output
    ##======================================##


    ##======================================##
    ## Run with output
    ##======================================##

fix enforce_2d all enforce2d
dump 2 all custom 1000 Results_eps_attr6_eps_rep1_eps_rep_weak1_range2_attr_with_repFalse_n_synapsin400_n_vesicles10/Movie_2d_eps_attr6_eps_rep1_eps_rep_weak1_range2_attr_with_repFalse_n_synapsin400_n_vesicles10.xyz id type mol x y z
run 1000000
Generated 0 of 3 mixed pair_coeff terms from geometric mixing rule
Neighbor list info ...
  update every 1 steps, delay 1 steps, check yes
  max neighbors/atom: 2000, page size: 100000
  master list distance cutoff = 11.52462
  ghost atom cutoff = 11.52462
  binsize = 5.7623102, bins = 109 109 1
  1 neighbor lists, perpetual/occasional/extra = 1 0 0
  (1) pair cosine/squared, perpetual
      attributes: half, newton on
      pair build: half/bin/newton
      stencil: half/bin/2d
      bin: standard
Per MPI rank memory allocation (min/avg/max) = 8.565 | 8.565 | 8.565 Mbytes
   Step          Temp          Press          TotEng         E_pair    
         0   0.99861585     0.026223369    0.91872658     0            
      1000   1.1057807      0.00092109647  1.0173182      0            
      2000   1.0198438      0.00058003858  0.92536888    -0.012887374  
      3000   1.0307013      0.00012719438  0.92759724    -0.020647993  
      4000   0.98548001     0.001235055    0.86883122    -0.037810386  
      5000   0.98918965     0.0014674873   0.87320146    -0.036853018  
      6000   0.99342931     0.0012086448   0.87895644    -0.034998532  
      7000   1.0274516      0.00099172506  0.88398579    -0.061269638  
      8000   1.0511449      0.00064679116  0.90467694    -0.062376407  
      9000   0.95606752     0.0017658244   0.82070416    -0.058877961  
     10000   0.9864686      0.0011166162   0.82213717    -0.085413943  
     11000   1.037074       0.0011473827   0.87484657    -0.079261485  
     12000   1.0422487      0.0015189402   0.87876171    -0.080107113  
     13000   0.99325154     0.00070497946  0.8232738     -0.090517619  
     14000   1.0196264      0.0015505329   0.84184203    -0.096214302  
     15000   0.95102231     0.00064010182  0.80473885    -0.070201675  
     16000   0.92922156     0.0011522847   0.76312303    -0.091760804  
     17000   1.0504487      0.0012908328   0.88366824    -0.082744603  
     18000   1.124084       0.00066290205  0.93615848    -0.09799877   
     19000   0.95112307     0.0014548316   0.77357812    -0.10145511   
     20000   1.0215576      0.0017342009   0.85194978    -0.087883185  
     21000   0.96921047     0.00044924849  0.78452501    -0.10714862   
     22000   0.98149955     0.0015266417   0.79949967    -0.10347991   
     23000   0.96485055     0.0017626961   0.78523775    -0.10242475   
     24000   1.0096557      0.001068835    0.826613      -0.10227025   
     25000   0.91366246     0.00075470612  0.73916645    -0.10140301   
     26000   0.97096529     0.00095575456  0.78594089    -0.10734718   
     27000   1.0641806      0.0011103517   0.88173014    -0.097315971  
     28000   0.95301975     0.00044362771  0.77049866    -0.10627951   
     29000   0.88986944     0.00055143227  0.6856374     -0.13304248   
     30000   0.94262571     0.00039059219  0.6877421     -0.17947355   
     31000   1.0845173      0.0017580286   0.83531838    -0.16243754   
     32000   0.98806596     0.00098787645  0.7517973     -0.15722339   
     33000   1.0906217      0.0010871238   0.84169487    -0.16167711   
     34000   0.94958184     0.00024898018  0.71237787    -0.16123743   
     35000   0.98341427     0.0010947891   0.7301302     -0.17461092   
     36000   1.0117399      0.00015391701  0.73346758    -0.19733317   
     37000   0.97743661     0.0015991812   0.72707305    -0.17216864   
     38000   1.122627       0.0020231494   0.83959027    -0.1932266    
     39000   1.006239       0.001458942    0.7218618     -0.20387811   
     40000   1.0277716      0.00064447504  0.74558678    -0.19996305   
     41000   0.93049692     0.0013323335   0.6478127     -0.20824446   
     42000   1.1518201      0.0003555805   0.85364898    -0.20602555   
     43000   1.0326677      0.00071877385  0.71933053    -0.23072378   
     44000   0.99532279     0.00045024777  0.70026306    -0.21543391   
     45000   0.92564509     0.00067193062  0.65154593    -0.20004755   
     46000   1.0638628      0.00099231023  0.81906321    -0.1596906    
     47000   1.0447824      0.00079838081  0.79074215    -0.17045762   
     48000   0.99172776     0.0016315182   0.74596289    -0.16642665   
     49000   0.94544809     0.00092361496  0.71205746    -0.15775479   
     50000   0.97932774     0.00098581578  0.73986943    -0.16111209   
     51000   0.96672637     0.0013448337   0.70325255    -0.18613571   
     52000   0.9529613      0.00057504361  0.70808003    -0.16864437   
     53000   1.03987        0.0013471765   0.79947253    -0.15720788   
     54000   0.98088826     0.00094504344  0.73117469    -0.17124251   
     55000   0.99601898     0.0011061226   0.75752073    -0.15881673   
     56000   0.97865103     0.00081581192  0.72296189    -0.17739705   
     57000   0.95420837     0.0012453752   0.6985059     -0.17936581   
     58000   0.95483473     0.0012502017   0.71244693    -0.16600102   
     59000   0.99072788     0.00080576525  0.75520137    -0.15626828   
     60000   1.0091962      0.00094449965  0.76646082    -0.16199966   
     61000   0.88711337     0.00068549278  0.64846189    -0.16768241   
     62000   1.004678       0.00093528903  0.77830279    -0.14600096   
     63000   1.0081083      0.00068906672  0.76260532    -0.16485432   
     64000   1.0628955      0.00070589997  0.82473949    -0.15312433   
     65000   1.0024304      0.0016971941   0.74533559    -0.17690038   
     66000   0.9343658      0.00023916432  0.685234      -0.17438254   
     67000   0.96830419     0.00093546562  0.68970881    -0.20113104   
     68000   1.0109196      0.00054725115  0.72431174    -0.20573432   
     69000   1.0106262      0.0011422996   0.73294518    -0.1968309    
     70000   1.0548539      0.00070324125  0.75808622    -0.21237933   
     71000   0.94875968     0.00092552452  0.70909731    -0.16376159   
     72000   1.1296916      0.0010480915   0.83531989    -0.20399636   
     73000   1.0505359      0.0010545078   0.7920122     -0.17448079   
     74000   1.1173343      0.0013741025   0.84057726    -0.18737028   
     75000   1.0131873      0.00036106941  0.75120721    -0.18092515   
     76000   1.0691519      0.00095693951  0.7926859     -0.19093387   
     77000   1.0027706      0.0010121008   0.75894624    -0.16360267   
     78000   1.0417553      0.0012150494   0.8188178     -0.1395971    
     79000   0.9880449      0.0011015167   0.75159761    -0.1574037    
     80000   1.0427795      0.0007312783   0.78815789    -0.17119926   
     81000   1.020134       0.00068475061  0.77716188    -0.16136144   
     82000   1.0117456      0.0010910518   0.75675506    -0.17405089   
     83000   0.98933968     0.00055768452  0.7390778     -0.1711147    
     84000   1.016439       0.00012822316  0.755301      -0.17982287   
     85000   1.0390871      0.00076927784  0.79188968    -0.16407043   
     86000   1.0052285      0.0004867452   0.7721847     -0.1526255    
     87000   1.0313673      0.00094564263  0.77702684    -0.17183112   
     88000   0.88769637     0.00028891923  0.62915724    -0.18752342   
     89000   0.93251902     0.0010020899   0.66158373    -0.19633377   
     90000   1.103303       0.0022614177   0.82814634    -0.18689245   
     91000   1.022999       0.0010044047   0.76134918    -0.17980989   
     92000   1.0558704      0.0012854317   0.76848292    -0.20291787   
     93000   0.98539297     0.00086690525  0.72062265    -0.18593888   
     94000   1.0003914      0.00073645775  0.72963246    -0.19072762   
     95000   0.9913972      0.0010038948   0.73895729    -0.17312814   
     96000   1.0329817      0.0014079899   0.76602664    -0.18431655   
     97000   0.98427159     0.0010321262   0.72116345    -0.18436642   
     98000   0.94987781     0.00036203978  0.68979641    -0.18409117   
     99000   1.0770968      0.0010681249   0.80095699    -0.18997202   
    100000   0.94138762     0.0013926701   0.68301168    -0.18306493   
    101000   0.99251303     0.0011599244   0.70771228    -0.20539971   
    102000   0.96436784     0.0016822231   0.66049971    -0.2267187    
    103000   1.0335216     -9.3627778e-05  0.72355656    -0.22728328   
    104000   1.0801168      0.0011191664   0.77357775    -0.22012971   
    105000   0.99155817     0.00049943416  0.6809859     -0.23124762   
    106000   0.94279549     0.0014144191   0.62642024    -0.24095161   
    107000   1.0481931      0.0012568933   0.70949713    -0.25484055   
    108000   0.8845001      0.0010109627   0.56924786    -0.24449223   
    109000   0.90697757     0.0012996734   0.5686245     -0.26579487   
    110000   0.98701823     0.0010723142   0.65172963    -0.25632714   
    111000   1.030592       0.0007965828   0.68547942    -0.26266524   
    112000   1.0956375      0.00028780267  0.74126661    -0.26671992   
    113000   0.98922403     0.00063351386  0.65363641    -0.2564497    
    114000   0.97876139     0.00092884788  0.65865238    -0.24180809   
    115000   0.9495293      0.0011711068   0.62141006    -0.2521569    
    116000   0.99982508     0.001508766    0.69768974    -0.22214933   
    117000   1.0435952      0.0014560106   0.70342567    -0.2566819    
    118000   0.99587872     0.00082631589  0.66124367    -0.25496475   
    119000   0.90462049     0.00096394231  0.58324041    -0.24901044   
    120000   1.0449744      0.0023267151   0.69493368    -0.2664428    
    121000   1.0096169      0.00038107925  0.68429378    -0.24455381   
    122000   1.0596784      0.0010124728   0.71489326    -0.26001083   
    123000   1.0310843      0.0011850878   0.70154121    -0.24705633   
    124000   0.97320589     0.0014766729   0.63563459    -0.25971483   
    125000   1.0160562      0.0010971506   0.67360147    -0.2611702    
    126000   1.0016584      0.0004378125   0.65300778    -0.26851797   
    127000   1.0175545      0.00054476188  0.64796708    -0.2881831    
    128000   1.0146932      0.00060953188  0.64898957    -0.28452822   
    129000   0.96889304     0.0010124469   0.64044264    -0.25093895   
    130000   1.1088538      0.0013609535   0.75667245    -0.26347305   
    131000   0.93158301     0.00092703343  0.58732454    -0.26973183   
    132000   1.0248981      0.00095865565  0.66891515    -0.2739911    
    133000   0.95584813     0.00052957378  0.62127955    -0.25810074   
    134000   1.0363964      0.00078480958  0.70184356    -0.25164114   
    135000   1.0335587      0.0014111802   0.65637645    -0.29449754   
    136000   1.0560012      0.0016897505   0.69983441    -0.27168667   
    137000   1.1129608      0.0017773614   0.75477283    -0.26915109   
    138000   0.97042715     0.0012473525   0.64747207    -0.24532091   
    139000   0.99398942     0.0015668466   0.64508558    -0.26938469   
    140000   1.0585958      0.00069771191  0.72972146    -0.24418667   
    141000   1.0454167      0.00095669364  0.72807878    -0.23370456   
    142000   0.93044306     0.0013001583   0.61005154    -0.24595608   
    143000   0.97430229     0.001450356    0.65679928    -0.23955883   
    144000   1.0674828      0.0014284735   0.75607429    -0.22600984   
    145000   1.0430061      0.00067061909  0.73900277    -0.22056282   
    146000   0.99997801     0.00075583033  0.68470697    -0.2352728    
    147000   1.0527425      0.00089017935  0.71929325    -0.24922983   
    148000   1.0164282      0.00059556656  0.68604408    -0.24906984   
    149000   1.0519034      0.00047602073  0.70225517    -0.26549596   
    150000   1.0933045      0.0010419529   0.74275193    -0.26308821   
    151000   1.0099592      0.0010433942   0.65366458    -0.27549791   
    152000   1.0197636      0.0013119454   0.69032962    -0.24785293   
    153000   1.0973093      0.0014827059   0.74280591    -0.26671865   
    154000   1.0367465      0.001213557    0.69524004    -0.25856674   
    155000   0.97983494     0.0013013166   0.62222931    -0.27921883   
    156000   1.0386041      0.0013558682   0.71754517    -0.23797056   
    157000   1.0108834      0.00077330215  0.66920934    -0.26080338   
    158000   1.0451212      0.00087728626  0.71629965    -0.24521188   
    159000   1.0232439      0.00065262912  0.68510019    -0.2562842    
    160000   1.0007375      0.0013290782   0.69312796    -0.2275505    
    161000   1.0581841      0.00091412663  0.77594216    -0.19758721   
    162000   0.95621158     0.0014602269   0.65944373    -0.22027093   
    163000   1.0804305      0.0015385787   0.74899353    -0.24500249   
    164000   1.1494956      0.0010372145   0.83311833    -0.22441761   
    165000   0.96880493     0.0017743589   0.64799679    -0.24330375   
    166000   1.0269777      0.00082331565  0.69829195    -0.24652751   
    167000   1.019796       0.00082399312  0.69774256    -0.24046972   
    168000   1.0584392      0.00085950425  0.74603674    -0.22772734   
    169000   1.0025977      0.0015868595   0.6496759     -0.27271397   
    170000   0.97540284     0.00038684623  0.61471541    -0.2826552    
    171000   1.0437335      0.0011583874   0.69333181    -0.26690303   
    172000   0.9707235      0.00073042782  0.62905212    -0.26401351   
    173000   1.0725776      0.00011313136  0.72976339    -0.25700799   
    174000   0.93431189     0.001034443    0.59784287    -0.26172407   
    175000   0.98607166     0.0013892039   0.67398712    -0.23319882   
    176000   0.9829771      0.0018683379   0.63042666    -0.27391228   
    177000   1.0463913      0.0010606559   0.71376699    -0.24891303   
    178000   0.97633951     0.00059336345  0.66273692    -0.23549543   
    179000   1.0481998      0.0011238999   0.74499175    -0.21935204   
    180000   1.030862       0.0022120989   0.73221621    -0.21617682   
    181000   1.0124818      0.0008178401   0.70571812    -0.22576518   
    182000   0.98744643     0.00094576237  0.65098294    -0.25746778   
    183000   0.98643        0.0022187916   0.62601387    -0.28150173   
    184000   0.97986716     0.00055493152  0.59536551    -0.30611229   
    185000   0.96651127     0.001606198    0.60545029    -0.28374008   
    186000   1.0377689      0.0009337663   0.67007537    -0.28467204   
    187000   0.96733789     0.0011419281   0.58981896    -0.30013191   
    188000   1.0333739      0.0012499068   0.71525794    -0.23544603   
    189000   1.0448513      0.00054243725  0.67692159    -0.2843416    
    190000   1.0661642      0.00031607321  0.67874625    -0.30212485   
    191000   0.94439736     8.1433892e-05  0.57083069    -0.29801488   
    192000   1.0326193      0.00072260888  0.67543237    -0.27457734   
    193000   0.91651479     0.00049810534  0.54850415    -0.29468945   
    194000   1.0732716      0.0011941703   0.67906877    -0.30834114   
    195000   0.9701811      0.0010162834   0.58068514    -0.31188147   
    196000   1.0761426      0.00075615607  0.71683414    -0.27321704   
    197000   1.0112443      0.001413057    0.64839456    -0.28195016   
    198000   0.88878809     0.001680106    0.53093453    -0.28675051   
    199000   0.95175433     0.0012172715   0.61391096    -0.26170302   
    200000   1.1571226      0.00068430264  0.80577138    -0.25878139   
    201000   0.94913863     0.0017093448   0.62079615    -0.25241139   
    202000   1.0414125      0.00036402848  0.71787116    -0.24022834   
    203000   1.0014266      0.00071620707  0.65738774    -0.26392471   
    204000   0.99078685     0.00045191854  0.63600479    -0.27551911   
    205000   0.93529534     0.00044443677  0.56912079    -0.29135092   
    206000   1.0290192      0.0013473687   0.69032211    -0.25637552   
    207000   0.99816498     0.0015005744   0.62212268    -0.29618911   
    208000   0.99755544     0.0011154249   0.64643519    -0.27131582   
    209000   1.0123103      0.0014581686   0.63267025    -0.29865526   
    210000   0.98660406    -0.00012209412  0.61323857    -0.29443717   
    211000   0.95821337     0.00060843116  0.58309365    -0.29846264   
    212000   0.89286917     0.0012091395   0.52571089    -0.29572875   
    213000   1.0239536      0.0013194426   0.66920893    -0.27282836   
    214000   0.99990811     0.0016762701   0.62752533    -0.29239013   
    215000   0.94269609     0.0012447954   0.58398291    -0.28329749   
    216000   0.83386884     0.0009829908   0.47697749    -0.29018184   
    217000   1.0610998      0.00092732215  0.694329      -0.28188283   
    218000   0.93653432     0.00060805024  0.56763465    -0.29397692   
    219000   1.0557861      0.0011513843   0.69515158    -0.27617163   
    220000   1.0269216      0.00077179494  0.63649163    -0.30827621   
    221000   1.0150713      0.0005062787   0.64476964    -0.28909593   
    222000   0.98877855     0.00075750694  0.6236196     -0.28605667   
    223000   0.99509931     0.0012323273   0.61631676    -0.2991746    
    224000   1.0131174      0.00060594769  0.63766622    -0.2944018    
    225000   1.0120463      0.001549743    0.62218227    -0.30890032   
    226000   0.97724995     0.00064854139  0.60575346    -0.29331649   
    227000   0.98585628     0.0010782943   0.60429425    -0.30269354   
    228000   1.0289321      0.0013353324   0.62507045    -0.32154711   
    229000   0.96678498     0.00028511578  0.56646541    -0.32297677   
    230000   1.0755448      0.00096886319  0.68508426    -0.30441698   
    231000   1.0145313      0.0013351467   0.61369893    -0.31966985   
    232000   0.99715807     0.0016590306   0.57667713    -0.34070829   
    233000   1.0084626      0.001256248    0.61126573    -0.31651984   
    234000   1.0659141      0.0012334805   0.62240902    -0.35823195   
    235000   1.0375365      0.0018659249   0.61257435    -0.34195919   
    236000   0.97079667     0.00066358997  0.50282522    -0.39030771   
    237000   1.0202629      0.00051759033  0.57507335    -0.36356857   
    238000   0.98265842     0.0015051865   0.5601913     -0.34385444   
    239000   0.99726698     0.00096436733  0.51316659    -0.40431904   
    240000   1.0298894      0.0011824528   0.5950934     -0.3524048    
    241000   0.99386131     0.0015800959   0.51300088    -0.40135153   
    242000   1.049406       0.0018883077   0.57858704    -0.38686646   
    243000   0.84162536     0.0007433873   0.41685637    -0.35743896   
    244000   0.96696505     0.00062500145  0.4539292     -0.43567864   
    245000   1.0900422      0.0010476018   0.55866366    -0.44417518   
    246000   1.0048881      0.00020318184  0.49334074    -0.43115628   
    247000   1.0649342      0.0017335532   0.55766556    -0.42207389   
    248000   1.0303153      0.0014171371   0.49876454    -0.44912558   
    249000   0.90767272     0.0014703904   0.39325166    -0.44180724   
    250000   0.97213479     0.0012761043   0.46271566    -0.43164834   
    251000   1.0084902      0.0011251955   0.49652515    -0.43128579   
    252000   0.96343666     0.0003729251   0.46207281    -0.42428892   
    253000   0.98633347     0.00058971723  0.5077736     -0.39965319   
    254000   1.0697874      0.00084688008  0.58408213    -0.40012228   
    255000   1.070291       0.00047673266  0.56564486    -0.41902288   
    256000   1.0740511      0.0012123088   0.62500308    -0.36312392   
    257000   1.0282097      0.00090339467  0.52793018    -0.41802275   
    258000   1.0079877      0.00074966289  0.48676513    -0.44058354   
    259000   0.97329969     0.0011157024   0.4487409     -0.44669481   
    260000   0.93379261     0.0015530536   0.44697749    -0.41211172   
    261000   0.93123662     0.0018446022   0.40675803    -0.44997966   
    262000   1.0054245      0.00058332099  0.48474607    -0.44024445   
    263000   0.99186769     0.0017242303   0.4947606     -0.41775768   
    264000   1.045974       0.00090645171  0.49899313    -0.46330297   
    265000   1.1206733      0.0011026462   0.60867834    -0.42234109   
    266000   0.99211507     0.00083029256  0.48213546    -0.43061041   
    267000   0.9827869      0.00043534     0.45587819    -0.44828576   
    268000   0.99071007     0.00076427894  0.51478394    -0.39666933   
    269000   1.0261903      0.0010377979   0.53023869    -0.41385636   
    270000   0.94726772     0.0021187447   0.4434109     -0.42807541   
    271000   0.93278432     0.0019234272   0.45304249    -0.40511908   
    272000   1.0877016      0.0016045305   0.60867592    -0.39200952   
    273000   1.0418807      0.001021363    0.54216482    -0.41636545   
    274000   1.0873456      0.0010714385   0.57625233    -0.42410565   
    275000   0.97551727     0.0014767006   0.50628273    -0.39119315   
    276000   0.99454287     0.0013375009   0.47466076    -0.44031868   
    277000   0.975184       0.00028500477  0.46728684    -0.42988244   
    278000   1.0927296      0.0016758457   0.58207946    -0.4232318    
    279000   0.97397706     0.00048154747  0.47751226    -0.41854663   
    280000   0.95025851     0.0013420353   0.43193468    -0.44230315   
    281000   0.9769229      0.0015844938   0.45450064    -0.44426843   
    282000   1.0214558      0.0011652591   0.48081596    -0.4589234    
    283000   1.026262       0.00087761784  0.50105437    -0.4431067    
    284000   1.04449        0.00044413642  0.52541281    -0.43551803   
    285000   1.07806        0.0011096156   0.56021926    -0.43159593   
    286000   1.0053942      0.0010257458   0.49346549    -0.43149713   
    287000   1.076394       0.00035780791  0.55414797    -0.43613455   
    288000   1.0002899      0.0018649408   0.46084058    -0.45942617   
    289000   1.007585       0.0010027391   0.48830929    -0.4386689    
    290000   0.98693512     0.0011488269   0.44970879    -0.45827151   
    291000   0.93226409     0.00086303513  0.43014618    -0.42753679   
    292000   0.98603891     0.0016881223   0.46027695    -0.44687885   
    293000   1.0162757      0.0013185133   0.50406498    -0.43090864   
    294000   1.0169207      0.0012458777   0.46892959    -0.46663746   
    295000   1.0152975      0.00032734806  0.47589577    -0.45817789   
    296000   1.0147926      0.00091247658  0.48383491    -0.44977425   
    297000   0.93902287     0.0017796517   0.40681184    -0.4570892    
    298000   1.0316454      0.00073027161  0.51234048    -0.43677325   
    299000   1.0067719      0.0015606593   0.48978649    -0.43644364   
    300000   0.98057363     0.00070309641  0.41435623    -0.48777151   
    301000   0.99943402     0.0004818122   0.45059155    -0.46888775   
    302000   1.0110675      0.001899522    0.47124966    -0.45893244   
    303000   0.99012154     0.0010030591   0.45520693    -0.45570489   
    304000   1.0888551      0.0012075966   0.57874742    -0.42299924   
    305000   1.0271431      0.0019743417   0.48786673    -0.45710495   
    306000   1.0388965      0.0017860604   0.48242083    -0.47336396   
    307000   1.0216271      0.0007042491   0.46660218    -0.47329478   
    308000   1.0419758      0.0013507146   0.52048198    -0.43813579   
    309000   0.93108405     0.0014012525   0.42951421    -0.42708311   
    310000   0.96430257     0.00055509166  0.44716481    -0.43999355   
    311000   1.004743       0.0011404774   0.50127529    -0.42308824   
    312000   0.95272516     0.00048202531  0.44622849    -0.43027866   
    313000   0.98577558     0.00092490002  0.48354567    -0.42336787   
    314000   1.0415057      0.00083662865  0.53896519    -0.41922002   
    315000   0.97206997     0.00019728263  0.44614658    -0.44815779   
    316000   1.0820322      0.0015514751   0.54566678    -0.44980284   
    317000   1.1114922     -0.00027792866  0.55921607    -0.4633568    
    318000   1.0335793      0.00099517642  0.49837831    -0.45251469   
    319000   1.0692017      0.0015500663   0.51179913    -0.47186642   
    320000   1.0654743      0.0012961257   0.48198711    -0.49824928   
    321000   0.99223048     0.00020409997  0.43336325    -0.47948879   
    322000   1.0296786      0.00085764068  0.47987261    -0.46743174   
    323000   1.0650272      0.0011408746   0.47766818    -0.50215685   
    324000   1.0375803      0.00051505393  0.46899619    -0.48557765   
    325000   0.92174434     0.0019163626   0.36832041    -0.47968438   
    326000   1.0396405      0.0015698882   0.47246887    -0.48400043   
    327000   1.0052264      0.0012071174   0.4111882     -0.5136201    
    328000   0.97164396     0.0011322843   0.41105343    -0.48285902   
    329000   1.0178988      0.0011558282   0.43505223    -0.50141465   
    330000   1.0426112      0.0011264587   0.44960996    -0.50959236   
    331000   0.9867184      0.0012914192   0.40826211    -0.49951882   
    332000   0.94512428     0.00010496056  0.35606297    -0.51345137   
    333000   1.0359014      0.0018812217   0.43922358    -0.5138057    
    334000   1.0282404      0.00015747987  0.45157318    -0.49440799   
    335000   1.0886809      0.0011168      0.5123138     -0.4892726    
    336000   1.0275805      0.0015858519   0.48430346    -0.46107064   
    337000   0.93524276     0.001375322    0.39293087    -0.46749247   
    338000   0.99102851     0.00031656938  0.45460631    -0.45713992   
    339000   0.96656694    -0.00011113839  0.4271262     -0.46211538   
    340000   1.0621376      0.0014356272   0.5271496     -0.45001701   
    341000   1.0564189      0.0012428249   0.51527036    -0.45663501   
    342000   1.0048005      0.0014505246   0.45051288    -0.47390354   
    343000   1.0061253      0.0011061417   0.47666645    -0.44896884   
    344000   0.95781733     0.0012761119   0.3770542     -0.50413775   
    345000   1.0102015      0.0020091419   0.42281713    -0.50656829   
    346000   1.0337571      0.00085730611  0.43913371    -0.5119228    
    347000   1.017793       0.0017242553   0.40107916    -0.53529039   
    348000   1.0157066      0.00074376834  0.42679001    -0.50766002   
    349000   1.0520197      0.0012888465   0.44296706    -0.52489105   
    350000   1.0041722      0.0011660653   0.38535882    -0.53847964   
    351000   1.0559264      0.00081779415  0.41950244    -0.55194982   
    352000   1.0331233      0.0011459101   0.4307974     -0.51967606   
    353000   1.0471454      0.00068700306  0.43046526    -0.53290847   
    354000   1.0510417      0.0012727813   0.42219215    -0.54476622   
    355000   0.99545828     0.00045806537  0.41177332    -0.5040483    
    356000   0.98326429     0.0015531591   0.38204653    -0.52255662   
    357000   1.0104943      0.0011711327   0.4241938     -0.50546097   
    358000   1.0115267      0.0012544588   0.37594402    -0.55466058   
    359000   0.9582252      0.00064518686  0.31481296    -0.56675423   
    360000   0.96480428     0.00065286516  0.33426577    -0.55335417   
    361000   1.0702343      0.00066576233  0.40006534    -0.58455025   
    362000   0.9778243      0.00099676609  0.31381087    -0.58578748   
    363000   1.0533742      0.00063079408  0.40507602    -0.56402822   
    364000   0.98739351     0.00066984091  0.32385029    -0.58455174   
    365000   1.0114914      0.00090156397  0.34628319    -0.5842889    
    366000   1.0265579      0.00090332253  0.3826341     -0.56179918   
    367000   0.98872843     0.001071769    0.3614427     -0.54818746   
    368000   0.99744358     0.0007213894   0.34048604    -0.57716205   
    369000   1.0284473      0.00092145061  0.35686193    -0.58930954   
    370000   0.96536362     0.00097445991  0.28742928    -0.60070525   
    371000   0.95570485     0.0014520664   0.28399626    -0.5952522    
    372000   0.9815485      0.00067065665  0.36043799    -0.54258663   
    373000   0.98833997     0.00014253621  0.36742123    -0.54185154   
    374000   0.97301374     0.0015848083   0.34495766    -0.55021499   
    375000   1.014061       0.0010980973   0.38693236    -0.54600372   
    376000   0.999262       0.0003069118   0.40190527    -0.51741577   
    377000   1.0287674      0.00073315634  0.38335923    -0.56310673   
    378000   1.0172001      0.00092624722  0.40982721    -0.52599689   
    379000   0.99578758     0.0004847285   0.39040015    -0.52572442   
    380000   1.0228966      0.0011956643   0.370072      -0.57099287   
    381000   1.0488369      0.00092427728  0.39045482    -0.5744751    
    382000   1.0640865      0.0007639052   0.37197492    -0.60698466   
    383000   1.0353241      0.00017287339  0.3508335     -0.60166467   
    384000   1.0257182      0.00038735512  0.33785876    -0.605802     
    385000   0.96927318     0.00086715962  0.26947952    -0.6222518    
    386000   0.99544052     0.00076296596  0.31437796    -0.60142732   
    387000   1.0263909      0.00052765991  0.3075277     -0.63675188   
    388000   0.98972975     0.0012807828   0.2747412     -0.63581017   
    389000   0.98308305     0.00064283224  0.29652018    -0.60791622   
    390000   0.9775992      0.0017895198   0.2698089     -0.62958236   
    391000   0.94988691    -1.2926823e-05  0.25732411    -0.61657185   
    392000   0.94203968     0.0014906888   0.21246427    -0.65421224   
    393000   1.051769       0.00037655511  0.32033885    -0.64728863   
    394000   1.0762916      0.0006035544   0.31771253    -0.67247572   
    395000   1.0259645      0.00041357884  0.28870679    -0.65518052   
    396000   0.98284776     1.898453e-07   0.24398849    -0.66023144   
    397000   1.0006238      0.0012204606   0.28810419    -0.63246973   
    398000   0.9748472      0.00077602025  0.25307385    -0.64378557   
    399000   0.9735037      0.00091968968  0.2474575     -0.64816591   
    400000   1.070734       0.00049508442  0.34324302    -0.64183226   
    401000   0.91685367     0.00029449366  0.21991609    -0.62358928   
    402000   1.0134592      0.00018232276  0.31080102    -0.62158147   
    403000   1.0063616      0.0011194634   0.30917879    -0.61667391   
    404000   0.91992988     0.00093614111  0.25149934    -0.59483615   
    405000   0.98143391     0.0014119681   0.35305526    -0.54986393   
    406000   0.97586289     0.00046445269  0.34139016    -0.5564037    
    407000   0.93295603     0.00085004595  0.26193641    -0.59638314   
    408000   0.98265827     0.00090326376  0.30775393    -0.59629168   
    409000   0.93902718     0.00066603425  0.27548796    -0.58841705   
    410000   0.95928816     0.0013597834   0.30171102    -0.58083408   
    411000   1.0215245      0.00097666003  0.34674875    -0.59305383   
    412000   0.91698299     0.00075846493  0.21604756    -0.6275768    
    413000   0.92207479     0.0011561611   0.27778915    -0.57051965   
    414000   0.96168755     0.0011487631   0.30958214    -0.5751704    
    415000   1.032468       0.0010313099   0.34021573    -0.60965486   
    416000   1.0338397      0.0010308049   0.36359515    -0.58753738   
    417000   1.0121009      0.00091720108  0.31463287    -0.61649993   
    418000   1.0022576      0.00025512584  0.35236241    -0.56971456   
    419000   1.0940207      0.0011134515   0.40740337    -0.5990957    
    420000   0.98751865     0.00050639073  0.31856357    -0.58995359   
    421000   0.98694535     0.0011224259   0.28551889    -0.62247083   
    422000   0.84181035     0.00045638375  0.17257859    -0.60188694   
    423000   1.0788437      0.0010191825   0.42505321    -0.56748303   
    424000   1.0209597      0.0018140004   0.3544786     -0.58480433   
    425000   1.0340511     -3.1039356e-05  0.35059894    -0.60072803   
    426000   1.0201145      0.0012634453   0.31134527    -0.62716007   
    427000   1.0156917      0.0010702333   0.3021357     -0.6323007    
    428000   1.1039723      0.0015318488   0.42737436    -0.5882802    
    429000   0.97739079     0.001046424    0.30787593    -0.5913236    
    430000   0.97061337     0.0012755787   0.27675286    -0.61621143   
    431000   0.96007646     0.0010888038   0.29461272    -0.58865762   
    432000   1.1055238      0.0010845571   0.41409974    -0.60298215   
    433000   0.99910355     0.00088906582  0.34918275    -0.56999252   
    434000   0.97332723     0.0013433446   0.30653141    -0.58892964   
    435000   0.95939806     0.00038461736  0.2906924     -0.59195382   
    436000   0.95936224    -2.7433642e-05  0.29014946    -0.59246379   
    437000   0.99906049     0.0014280206   0.30408557    -0.61505008   
    438000   1.0201615      0.00059965491  0.36813134    -0.57041727   
    439000   0.92494389     0.00081594202  0.23467489    -0.61627348   
    440000   0.89772241     0.00070941498  0.23411456    -0.59179005   
    441000   0.96946212     0.00041312128  0.29886722    -0.59303793   
    442000   1.0312999      0.00094316768  0.37446162    -0.57433432   
    443000   1.0067293      0.0010468864   0.31185701    -0.61433396   
    444000   0.89517641     0.00024857853  0.22422835    -0.59933395   
    445000   1.0243978      0.0012428375   0.33751978    -0.60492619   
    446000   0.92453646     0.0020526996   0.22693398    -0.62363956   
    447000   1.059296       0.0016320303   0.34032118    -0.63423112   
    448000   1.0151794      0.0014926422   0.34688387    -0.58708116   
    449000   1.0367166      0.0010875003   0.35964797    -0.5941313    
    450000   0.98242032     0.00093665189  0.28454957    -0.61927712   
    451000   1.0738883      0.0010791463   0.3402784     -0.64769886   
    452000   1.0884173      0.0013515375   0.42999254    -0.57135134   
    453000   0.97788899     0.001184797    0.26141865    -0.63823922   
    454000   0.97839515     0.0014862754   0.26493232    -0.63519122   
    455000   1.0250292      0.0013090374   0.29272107    -0.65030582   
    456000   1.1455019      0.0018948868   0.40595693    -0.64790487   
    457000   0.9645392      0.00063458217  0.27184206    -0.61553401   
    458000   0.9766968      0.0009494026   0.27626147    -0.62229959   
    459000   0.9513231      0.00017319896  0.24868097    -0.62653628   
    460000   0.95248022     0.0010116719   0.23743905    -0.63884276   
    461000   1.0537071      0.0012654837   0.33235321    -0.63705728   
    462000   0.9775598      0.00098037294  0.2496163     -0.64973871   
    463000   1.0322387      0.0011142344   0.31652699    -0.63313264   
    464000   1.0580495      0.00091639789  0.31515922    -0.65824632   
    465000   1.0189122      0.0011890959   0.28352541    -0.6538738    
    466000   0.92810591     0.00077741203  0.17135234    -0.68250509   
    467000   0.92441534     0.00068738376  0.17977865    -0.67068347   
    468000   1.0873495     -0.00035866968  0.34300807    -0.65735348   
    469000   0.9293207      0.00091089926  0.19676093    -0.65821412   
    470000   0.97594622     0.00077467492  0.3032791     -0.59459142   
    471000   0.99523587     0.0011466254   0.24782823    -0.66778877   
    472000   0.96141163     0.0012615643   0.19495165    -0.68954705   
    473000   1.003827       0.0018042802   0.2464081     -0.67711277   
    474000   0.96318219     0.0010436972   0.2328284     -0.65329921   
    475000   0.99109254     0.00050189585  0.22277873    -0.68902641   
    476000   1.0186648      0.0009948009   0.24572601    -0.69144557   
    477000   1.0074584      0.0011724903   0.23795936    -0.68890232   
    478000   1.0550318      0.0011979732   0.29978074    -0.67084847   
    479000   0.96855251     0.0013372074   0.25143522    -0.63963308   
    480000   0.93062946     0.0010413992   0.21409375    -0.64208536   
    481000   1.0144801      0.00047744095  0.25024997    -0.68307176   
    482000   1.0056602      0.0014938959   0.25378692    -0.6714205    
    483000   1.0946601      0.00095873553  0.39290977    -0.61417755   
    484000   1.0450005      0.00074880277  0.30801841    -0.65338204   
    485000   1.0134088      0.00067060118  0.29152798    -0.64080816   
    486000   1.0888833      0.0018716049   0.37491199    -0.62686061   
    487000   0.91539501     0.00043553757  0.16780034    -0.67436307   
    488000   1.0418549      0.00077081272  0.31585659    -0.64264993   
    489000   1.0100062      0.0014535614   0.31620242    -0.61300327   
    490000   0.98594868     0.00065027722  0.26675355    -0.64031924   
    491000   0.86433672     0.00060122716  0.13831697    -0.65687281   
    492000   0.95207801     0.0002478506   0.22566209    -0.65024968   
    493000   0.95413903     0.0012230472   0.21432438    -0.66348352   
    494000   0.98559216     0.0012069041   0.19477201    -0.71197278   
    495000   1.0315631      0.00048241223  0.27661985    -0.67241823   
    496000   1.0304166      0.0013169515   0.28661924    -0.66136406   
    497000   1.0498331      0.0012628272   0.32311824    -0.6427282    
    498000   1.0526077      0.00096851357  0.26741087    -0.70098821   
    499000   0.94456113     0.00037694711  0.17731016    -0.69168608   
    500000   1.0954843      0.0010772016   0.32193628    -0.68590932   
    501000   1.016814       0.0016560038   0.22974011    -0.70572875   
    502000   0.941144       0.00047149903  0.14188807    -0.7239644    
    503000   0.97541738     0.00068432152  0.18497769    -0.7124063    
    504000   0.99810432     0.0018868565   0.20011318    -0.71814279   
    505000   1.0473321      0.001018398    0.2367531     -0.7267924    
    506000   0.95772782     0.0014050404   0.15379102    -0.72731857   
    507000   1.0007103      0.0015706516   0.19604903    -0.7246044    
    508000   0.95339263     0.0014688845   0.15918159    -0.71793963   
    509000   0.98864486     0.0011542824   0.20195161    -0.70760165   
    510000   0.93563516     0.0010179674   0.15299859    -0.70778575   
    511000   0.96783291     0.0014002258   0.17882068    -0.71158559   
    512000   0.99768808     0.0015078785   0.18011205    -0.73776099   
    513000   1.0289151      0.00092894304  0.21688736    -0.72971452   
    514000   1.0041844      0.00125219     0.23479754    -0.68905211   
    515000   1.1035985      0.00072841674  0.29537163    -0.71993898   
    516000   0.99845077     0.0010358332   0.22342203    -0.69515267   
    517000   0.99095191     0.0015855763   0.21538601    -0.69628975   
    518000   0.9653767      0.00088415892  0.19712999    -0.69101657   
    519000   1.0129741      0.0020857519   0.22600004    -0.70593608   
    520000   0.94038645     0.00043850173  0.21162093    -0.65353461   
    521000   1.0797036      0.00071180095  0.33558844    -0.65773883   
    522000   0.93770858     0.0010595512   0.20551003    -0.65718186   
    523000   1.0861184      0.0007986601   0.33876655    -0.6604624    
    524000   0.9908467      0.001193844    0.2569806     -0.65459837   
    525000   0.98302189     0.00092321022  0.25645193    -0.64792821   
    526000   1.0450131      0.00088193357  0.28806198    -0.67335009   
    527000   1.0150415      0.0017322646   0.25350217    -0.68033602   
    528000   1.0535892      0.00072081125  0.31657203    -0.65273004   
    529000   0.98090023     0.0019485654   0.23743631    -0.6649919    
    530000   0.93695855     0.0012238137   0.20889687    -0.653105     
    531000   0.91981096     0.00069456111  0.20904422    -0.63718187   
    532000   1.0687516      0.00084182316  0.38090749    -0.60234401   
    533000   1.0511248      0.00075131921  0.31995998    -0.64707485   
    534000   0.97745286     0.0012748382   0.27044739    -0.62880924   
    535000   0.97082188     0.00075335204  0.26834282    -0.62481331   
    536000   0.96076736     0.0018244983   0.26738936    -0.61651661   
    537000   0.9283401      0.00073384841  0.25579514    -0.59827775   
    538000   0.96259098     0.00064820136  0.26552524    -0.62005846   
    539000   0.96489006     0.0005410005   0.24540821    -0.64229065   
    540000   1.0736637      0.001566773    0.36980393    -0.61796667   
    541000   1.0724014      0.0015242107   0.38237667    -0.60423262   
    542000   0.81501772     0.00044084262  0.17560237    -0.57421394   
    543000   0.92621874     0.00064476143  0.21352275    -0.63859849   
    544000   0.98861671     0.0013833115   0.267343      -0.64218437   
    545000   1.0063476      0.00118616     0.28294387    -0.6428959    
    546000   0.88888059     0.0011032807   0.20330217    -0.61446797   
    547000   0.90747418     0.0011921212   0.19608318    -0.63879307   
    548000   0.98532817     0.00067164903  0.28539004    -0.62111188   
    549000   1.053414       0.00045872493  0.34772004    -0.62142079   
    550000   0.94244564     0.0004363005   0.23522696    -0.63182303   
    551000   0.92577633     0.0011617365   0.2087637     -0.64295053   
    552000   1.082648       0.00056068854  0.40418287    -0.59185332   
    553000   0.96270755     0.0016654574   0.25008989    -0.63560106   
    554000   1.0527679      0.0016928076   0.31956023    -0.64898622   
    555000   1.0147895      0.00087278969  0.31738296    -0.61622334   
    556000   0.99455005     0.00047853678  0.3027804     -0.61220565   
    557000   0.99284105     0.00087213438  0.28066013    -0.63275363   
    558000   1.1022854      0.0010515436   0.39834604    -0.61575649   
    559000   1.0565093      0.0014571631   0.36491678    -0.6070718    
    560000   0.99387387     0.00026463682  0.2967408     -0.61762316   
    561000   0.98241304     0.0010043074   0.27623622    -0.62758378   
    562000   1.0376987      0.00062186853  0.33318469    -0.62149811   
    563000   1.0131061      0.00057252126  0.29447791    -0.63757974   
    564000   0.98270104     0.0011260053   0.27974008    -0.62434488   
    565000   0.9734053      0.00088174723  0.28222209    -0.61331079   
    566000   1.0333708      0.00081601397  0.34155685    -0.60914426   
    567000   1.0026092      0.00071979459  0.31645336    -0.60594714   
    568000   1.0866699      0.0007886982   0.39349246    -0.60624383   
    569000   0.98240747     0.0013332506   0.25748906    -0.64632581   
    570000   0.99199313     0.00084608327  0.30623479    -0.60639889   
    571000   1.0405483      0.001111287    0.37215781    -0.58514663   
    572000   0.97800378     0.00083115605  0.3110877     -0.58867578   
    573000   0.9918588      0.00048915959  0.33278089    -0.5797292    
    574000   1.1088041      0.0018341914   0.41464841    -0.60545136   
    575000   1.0022673      0.00062244384  0.33058414    -0.5915018    
    576000   0.91837874     0.0008775898   0.27777336    -0.56713508   
    577000   1.0031069      0.0011830454   0.35757788    -0.56528048   
    578000   0.95830619     0.00062448765  0.28618345    -0.59545825   
    579000   1.0942662      0.0018566222   0.42909871    -0.57762621   
    580000   1.0026384      0.00026047401  0.32713016    -0.59529712   
    581000   1.0873321      0.0009618725   0.383752      -0.61659354   
    582000   1.0271299      0.0010293198   0.35974776    -0.58521172   
    583000   0.98802108     0.0012249421   0.36628981    -0.54268958   
    584000   0.98443818     0.0011831276   0.31974742    -0.58593571   
    585000   0.99768474     0.0012968294   0.34263357    -0.57523639   
    586000   0.92564726     0.0011132462   0.28903871    -0.56255677   
    587000   1.0272583      0.00087654423  0.3542108     -0.59086686   
    588000   0.96936225     0.00079575615  0.31034434    -0.58146893   
    589000   0.92936999     0.0006300366   0.28150541    -0.57351498   
    590000   1.09342        0.0017911001   0.41437483    -0.59157153   
    591000   1.0582219      0.00015716554  0.37323746    -0.60032672   
    592000   0.99855816     0.00064056649  0.35071331    -0.5679602    
    593000   1.0681928      0.001146731    0.36540852    -0.61732889   
    594000   1.0301178      0.00074474433  0.34724578    -0.60046259   
    595000   1.0060701      0.0016571559   0.35090528    -0.57467923   
    596000   1.1052823      0.0011559158   0.47004334    -0.54681634   
    597000   0.91080688     0.00099692438  0.27781507    -0.56012726   
    598000   0.91486229     0.00069171131  0.31505366    -0.52661964   
    599000   0.99903723     0.0012552379   0.36259962    -0.55651463   
    600000   0.98116467     0.0013154809   0.34353316    -0.55913834   
    601000   1.0078326      0.00083509218  0.39397184    -0.53323415   
    602000   1.0445212      0.0014590569   0.41552807    -0.54543148   
    603000   0.98072025     0.00081736002  0.36192737    -0.54033526   
    604000   0.91832664     0.0012278904   0.33926328    -0.50559723   
    605000   0.97864329     0.0015001445   0.33270264    -0.56764919   
    606000   1.0329679      0.0017173857   0.38060012    -0.56973034   
    607000   0.95203815     0.00067831027  0.29906684    -0.57680826   
    608000   0.93783161     0.00065246674  0.32899304    -0.53381204   
    609000   0.97734699     0.0019962718   0.37793343    -0.5212258    
    610000   0.99388641     0.0014126668   0.38994462    -0.52443087   
    611000   1.0253491      0.0010850435   0.44266633    -0.5006548    
    612000   0.93631992     0.00078410286  0.3269166     -0.53449773   
    613000   1.0541758      0.00062644488  0.43735079    -0.53249091   
    614000   1.0678467      0.0012035597   0.44268153    -0.53973742   
    615000   1.0053212      0.0011673259   0.40092325    -0.52397226   
    616000   1.0523699      0.00093594063  0.44886922    -0.51931113   
    617000   1.0097491      0.0012020465   0.42416983    -0.50479936   
    618000   1.0459003      0.00051890515  0.46329558    -0.49893272   
    619000   1.0232303      0.0011119199   0.46233226    -0.47903962   
    620000   1.0721903      0.00048717211  0.47729645    -0.50911861   
    621000   1.0947635      0.0013709671   0.5119869     -0.49519557   
    622000   1.0192361      0.0006841661   0.43148472    -0.50621248   
    623000   1.0072928      0.0010513495   0.42713808    -0.4995713    
    624000   1.0714052      0.001348933    0.45124873    -0.53444406   
    625000   0.93698863     0.00089371745  0.34928536    -0.51274418   
    626000   0.93010246     0.00096535642  0.30507968    -0.55061458   
    627000   0.98990037     0.00040103787  0.39296539    -0.51774296   
    628000   0.98299442     0.0017817219   0.38604843    -0.51830643   
    629000   0.96114261     0.00097821763  0.34275668    -0.54149452   
    630000   1.0879237      0.00099646613  0.45490633    -0.54598345   
    631000   0.96616029     0.00025887856  0.29626042    -0.59260705   
    632000   0.93766198     0.0018968445   0.32645521    -0.53619382   
    633000   0.97882868     0.00088019437  0.33646168    -0.5640607    
    634000   0.93465475     5.3960952e-05  0.29537159    -0.56451077   
    635000   0.98388111     0.0021138976   0.35787459    -0.54729603   
    636000   1.0485982      0.00069672641  0.39612715    -0.56858322   
    637000   1.0026196      0.0018469282   0.36555908    -0.55685099   
    638000   0.93763608     0.001294137    0.33343858    -0.52918661   
    639000   1.0549077      0.0013572173   0.41275424    -0.55776085   
    640000   0.99471539     0.00053125093  0.34942123    -0.56571693   
    641000   0.96535099     0.00086648821  0.30587628    -0.58224663   
    642000   0.95106473     0.0010271824   0.31960901    -0.55537055   
    643000   1.0432308      0.00096628805  0.40147384    -0.55829854   
    644000   0.96056828     0.00087979718  0.36711078    -0.51661204   
    645000   0.89454427     0.0015393585   0.28358648    -0.53939425   
    646000   1.085902       0.00059555638  0.45132598    -0.54770386   
    647000   1.0289344      0.0010237144   0.39199209    -0.5546276    
    648000   0.96823418     0.0010430543   0.33260755    -0.55816789   
    649000   1.0500715      0.0010524868   0.4249836     -0.54108217   
    650000   1.0402526      0.0011694833   0.39252059    -0.56451179   
    651000   1.0857876      0.0014603894   0.44346955    -0.55545501   
    652000   0.95126359     0.0011249752   0.31829834    -0.55686417   
    653000   0.98468803     0.0014140596   0.32509569    -0.5808173    
    654000   1.0800098      0.00080225983  0.41395725    -0.57965177   
    655000   1.0209891      0.0013254841   0.38435751    -0.5549525    
    656000   1.0017275      0.00068692828  0.38129434    -0.54029497   
    657000   1.0158094      0.0006726066   0.35846469    -0.57608      
    658000   1.0027854      0.00093128909  0.30305811    -0.61950445   
    659000   1.020969       0.0017637118   0.37994571    -0.55934575   
    660000   0.99270949     0.00065460274  0.35857054    -0.55472219   
    661000   0.91115552     0.0013400838   0.25968063    -0.57858245   
    662000   0.92662229     0.00070697476  0.23801898    -0.61447353   
    663000   1.0693795      0.0012282678   0.38640599    -0.59742319   
    664000   1.0057181      0.0022341213   0.33469216    -0.59056846   
    665000   1.0229043      0.00077795432  0.35204984    -0.58902213   
    666000   1.0917943      0.00098007529  0.42705082    -0.57739995   
    667000   1.0541998      0.0011347466   0.37620945    -0.59365441   
    668000   1.0234027      0.001128354    0.36778588    -0.57374461   
    669000   1.0140531      0.0015192279   0.37073748    -0.56219134   
    670000   1.0232601      0.0012947343   0.36617112    -0.57522817   
    671000   1.0649816      0.0010191765   0.36881064    -0.61097242   
    672000   1.0116167      0.0014009472   0.32640639    -0.60428095   
    673000   0.98817257     0.00065860847  0.29959076    -0.60952801   
    674000   1.0733081      0.000841784    0.4018285     -0.58561494   
    675000   1.0166974      0.0010537733   0.33478024    -0.60058133   
    676000   1.0045711      0.0011898238   0.31962238    -0.60458301   
    677000   1.0566139      0.0009264287   0.40060221    -0.57148263   
    678000   0.96356915     0.0006359627   0.28501105    -0.60147257   
    679000   0.96023807     0.00065589496  0.30450992    -0.5789091    
    680000   1.0155661      0.00050392401  0.33731215    -0.5970087    
    681000   1.0169272      0.0006430259   0.36922692    -0.56634608   
    682000   0.93581395     0.00097514605  0.24009596    -0.62085288   
    683000   0.94605952     0.0013216686   0.2558515     -0.61452325   
    684000   1.0794298      0.00046274729  0.37189121    -0.62118422   
    685000   1.0223934      0.0013465328   0.32455823    -0.6160437    
    686000   1.0287381      0.00028160436  0.29925883    -0.64718024   
    687000   1.0655801      0.0015599608   0.38291593    -0.59741772   
    688000   1.0348143      0.0016616545   0.28057519    -0.67145397   
    689000   0.97608852     0.00056407079  0.25322557    -0.64477586   
    690000   1.024453       0.0012266706   0.28974301    -0.65275379   
    691000   0.95150008     0.0015460339   0.22203345    -0.65334662   
    692000   0.96510832     0.00052745537  0.21802867    -0.66987098   
    693000   0.93086278     0.00079101257  0.19642992    -0.65996384   
    694000   1.0931722      0.0012125502   0.36232963    -0.64338875   
    695000   0.97117785     0.00078910698  0.26135539    -0.63212823   
    696000   0.99857132     0.0012659216   0.28756202    -0.63112359   
    697000   0.92419091     0.0016997402   0.21173109    -0.63852455   
    698000   1.0268857      0.00097610825  0.29426445    -0.65047037   
    699000   1.0224326      0.00073759529  0.29629599    -0.644342     
    700000   0.96077531     0.00087891519  0.22687657    -0.65703671   
    701000   0.96617641     0.00065934789  0.23645502    -0.65242728   
    702000   0.96180479     0.0011624161   0.22964451    -0.65521589   
    703000   0.96387731     0.0012937988   0.2347902     -0.65197693   
    704000   0.96125185     0.0011684733   0.25396217    -0.63038953   
    705000   1.0767296      0.0014881497   0.32021268    -0.67037851   
    706000   0.93092581     0.00024890576  0.21394945    -0.64250229   
    707000   0.98506616     0.00023893762  0.27698628    -0.62927459   
    708000   1.0323765      0.00061674206  0.31366225    -0.63612409   
    709000   1.0080905      0.00072678558  0.27923604    -0.64820724   
    710000   0.94705453     0.0010701669   0.23300837    -0.6382818    
    711000   0.96498036    -7.7928918e-05  0.22797778    -0.65980414   
    712000   0.97875025     0.0015349994   0.24325537    -0.65719487   
    713000   0.94024505     0.00058087255  0.20867977    -0.65634567   
    714000   1.0411538      0.0005160053   0.32681963    -0.63104183   
    715000   1.0371518      0.0019046731   0.30082219    -0.65335744   
    716000   0.99671713     0.00066030011  0.23741572    -0.67956405   
    717000   1.0533729      0.00059576283  0.29321671    -0.67588636   
    718000   0.99896495     0.000369786    0.27851554    -0.64053221   
    719000   0.88408449     0.0011481197   0.22314276    -0.59021497   
    720000   0.97017522     0.0010315362   0.27486834    -0.61769287   
    721000   1.0152182      0.00021350238  0.250966      -0.68303478   
    722000   0.94065244     0.00068889846  0.25255245    -0.6128478    
    723000   1.0424617      0.00031451298  0.30110418    -0.65796057   
    724000   1.0382414      0.00091407519  0.26776593    -0.68741614   
    725000   1.0641426      0.00055928767  0.30180459    -0.67720658   
    726000   1.0074978      0.0013316791   0.27818514    -0.64871287   
    727000   1.0210126      0.00055218779  0.29083196    -0.64849964   
    728000   1.0109132      0.0017096842   0.26275006    -0.66729012   
    729000   1.0300148      0.0013376982   0.26594626    -0.68166731   
    730000   0.99094892     0.0011200457   0.23880637    -0.67286664   
    731000   0.91660407     0.00038686323  0.15143062    -0.69184512   
    732000   1.0675916      0.00077822038  0.3104469     -0.67173734   
    733000   1.0495932      0.00082023829  0.26789061    -0.6977351    
    734000   0.91524864     0.0013132007   0.18001906    -0.66200969   
    735000   0.95446722     0.0007852248   0.17943366    -0.69867618   
    736000   1.0418825      0.0011237826   0.26331618    -0.69521573   
    737000   0.95448886     0.0018322613   0.19035073    -0.68777902   
    738000   0.96864244     0.00038574374  0.20925248    -0.68189857   
    739000   0.93077017     0.00041222421  0.16378038    -0.69252818   
    740000   1.057926       0.0017866526   0.29688439    -0.67640752   
    741000   1.0369832      0.00080651394  0.27896174    -0.67506278   
    742000   0.94913299     0.00098863908  0.22641966    -0.64678269   
    743000   0.97197941     0.0010410843   0.24977708    -0.64444397   
    744000   1.011369       0.00019593375  0.31369784    -0.61676166   
    745000   1.0603919      0.0006566587   0.33750904    -0.63805152   
    746000   1.0001939      0.00094270236  0.26352593    -0.65665243   
    747000   1.0270938      0.00010132296  0.29660151    -0.64832482   
    748000   0.95615071     0.00062038575  0.21592823    -0.66373042   
    749000   0.9827996      5.016077e-05   0.24028784    -0.66388779   
    750000   1.0185745      0.0012523893   0.27001122    -0.66707734   
    751000   1.0216176      0.0012395931   0.27249984    -0.66738836   
    752000   1.0529467      0.0013617419   0.33890692    -0.629804     
    753000   1.0340797      0.0012902118   0.31201114    -0.63934217   
    754000   0.95789858     0.0013374069   0.23409811    -0.64716859   
    755000   1.0370458      0.00083625972  0.28484244    -0.66923974   
    756000   0.98183882     0.0010866314   0.22144801    -0.68184371   
    757000   1.0139461      0.0009558424   0.24148187    -0.69134855   
    758000   1.0806684      0.0014007064   0.29603692    -0.69817798   
    759000   1.0482145      0.0011104123   0.25961983    -0.70473753   
    760000   1.0016879      0.00071509533  0.22149873    -0.70005414   
    761000   0.98030594     0.0013532922   0.13709403    -0.76478743   
    762000   0.99394531     0.00038500837  0.1818458     -0.73258389   
    763000   1.030846       0.0013818567   0.19660595    -0.75177241   
    764000   0.96354464     0.0010800114   0.12216326    -0.76429781   
    765000   1.0927632      0.0012450435   0.29031598    -0.71502612   
    766000   0.97613959     0.0011172799   0.19292171    -0.70512671   
    767000   0.93804748     0.00031818348  0.1750676     -0.68793609   
    768000   1.0821358      0.0013984398   0.30405719    -0.69150773   
    769000   1.0703879      0.00099898167  0.27938205    -0.70537479   
    770000   1.0258909      0.00066815492  0.26196962    -0.68185004   
    771000   0.90716108     0.0010227512   0.12950489    -0.7050833    
    772000   0.89994696     0.00088674182  0.13384829    -0.69410292   
    773000   1.0224987      0.0008923011   0.2279295     -0.71276927   
    774000   1.0210032      0.00079641822  0.2471893     -0.6921336    
    775000   1.020523       0.0017428667   0.18633062    -0.75255056   
    776000   1.0290142      0.00095078309  0.26046769    -0.68622539   
    777000   0.98309666     0.00043386841  0.20268817    -0.70176076   
    778000   1.0121159      0.00033643891  0.24698598    -0.68416065   
    779000   1.0058432      0.00096301101  0.23247635    -0.69289937   
    780000   1.0299266      0.0010011877   0.25386684    -0.69366565   
    781000   0.92694488     0.0012827628   0.13970427    -0.71308502   
    782000   0.97821962     0.00093137791  0.17384284    -0.7261192    
    783000   1.0344334      0.00059165483  0.24682647    -0.70485223   
    784000   1.0155606      0.0010832984   0.21289849    -0.72141727   
    785000   1.0622518      0.001678011    0.2568531     -0.72041855   
    786000   0.93876712     0.0011624021   0.1809777     -0.68268805   
    787000   1.0403891      0.00064750887  0.25296819    -0.70418976   
    788000   0.96090235     0.0012260142   0.18451794    -0.69951223   
    789000   0.99398346     0.0002354705   0.1905186     -0.72394618   
    790000   0.9603187      0.00086436744  0.17054922    -0.71294398   
    791000   1.0079512      0.0013642401   0.19839906    -0.72891606   
    792000   1.0531467      0.00086915214  0.23877288    -0.73012209   
    793000   0.95229154     0.0014749181   0.19551064    -0.68059757   
    794000   1.0018412      0.00079245688  0.23297572    -0.68871822   
    795000   1.0480977      0.00045576471  0.26450426    -0.6997456    
    796000   0.97256406     0.0011389042   0.20770552    -0.68705341   
    797000   1.0194956      0.0013039008   0.21874694    -0.71918902   
    798000   1.012364       0.00031636211  0.24672968    -0.68464523   
    799000   1.0443956      0.0015088313   0.28617109    -0.67467284   
    800000   1.0120872      0.00084751705  0.21011925    -0.721001     
    801000   0.9709758      0.00079672843  0.16668303    -0.7266147    
    802000   0.93911291     0.00010673635  0.13962187    -0.72436201   
    803000   1.0167786      0.0015811489   0.27067828    -0.66475799   
    804000   0.90164068     0.00066187038  0.15445609    -0.67505334   
    805000   1.0384805      0.00044250508  0.28069384    -0.67470818   
    806000   1.0070374      0.0010840881   0.24250996    -0.68396442   
    807000   1.0423393      0.00071061789  0.27753347    -0.6814187    
    808000   1.0791338      0.0011781886   0.31443867    -0.6783644    
    809000   1.0397127      0.0012543797   0.31341975    -0.64311595   
    810000   1.0233644      0.00018705546  0.26365348    -0.6778418    
    811000   1.0934969      0.0011036281   0.32375517    -0.68226194   
    812000   0.96521182     0.00027043283  0.1856164     -0.70237848   
    813000   1.064021       0.0010296397   0.27006024    -0.70883906   
    814000   1.0838692      0.0017149552   0.2776915     -0.71946814   
    815000   1.0013631      0.00061524645  0.23798306    -0.68327102   
    816000   0.90215906     0.00093803699  0.1494352     -0.68055114   
    817000   0.94673268     0.00091261198  0.17175006    -0.699244     
    818000   0.99286298     0.00070358862  0.17927913    -0.73415481   
    819000   1.0119301      0.00067082058  0.22342133    -0.70755436   
    820000   0.98475108     0.00097909219  0.15867572    -0.74729528   
    821000   1.054884       0.00095663764  0.2484706     -0.72202263   
    822000   1.0835624      0.00082811388  0.24217695    -0.75470042   
    823000   1.0732182      0.0010765474   0.24120919    -0.74615158   
    824000   1.0009452      0.00059763109  0.17304417    -0.74782538   
    825000   1.0659666      0.00092438198  0.29693366    -0.68375556   
    826000   1.0026364      0.0014831107   0.16541819    -0.75700727   
    827000   0.86616657     0.0017136187   0.060945245   -0.735928     
    828000   0.91653604     0.0010325283   0.095186204   -0.74802696   
    829000   1.0451412      0.0017805558   0.20257301    -0.75895689   
    830000   0.95443642     0.00095175648  0.12487865    -0.75320285   
    831000   1.0540276      0.0006195132   0.22493494    -0.74477049   
    832000   1.0580315      0.0012018186   0.22050002    -0.75288892   
    833000   0.97309738     0.0010630565   0.14597566    -0.74927393   
    834000   0.98640792     0.0010762205   0.16111931    -0.74637597   
    835000   0.96355244     0.001588078    0.1344737     -0.75199454   
    836000   1.1005877      0.0016562786   0.21866463    -0.79387603   
    837000   0.94085637     0.00076201899  0.053598531   -0.81198933   
    838000   1.0606833      0.001318633    0.18857188    -0.78725672   
    839000   1.0393161      0.00050830239  0.15159265    -0.8045782    
    840000   1.0739576      0.0011497402   0.18553715    -0.80250384   
    841000   0.97363462     0.00093484499  0.10558369    -0.79016016   
    842000   0.99060629     0.00048872865  0.14351394    -0.76784385   
    843000   1.0446828      0.0016780305   0.1493593     -0.81174892   
    844000   0.99324006     0.00073902366  0.0989373     -0.81484356   
    845000   0.96160303     0.00054249585  0.11123845    -0.77343633   
    846000   1.006924       0.0013680587   0.14402224    -0.78234782   
    847000   0.88555848     0.00043228787  0.064421911   -0.75029189   
    848000   0.9509406      0.001347915    0.13491193    -0.73995342   
    849000   0.97055482     0.0013838189   0.12622013    -0.76669031   
    850000   1.0369496      0.00094601598  0.20699147    -0.74700217   
    851000   1.0151672      0.0004752671   0.18402501    -0.74992882   
    852000   0.91034483     0.0012520804   0.069297432   -0.76821981   
    853000   1.0283585      7.4628388e-05  0.16147358    -0.78461625   
    854000   0.91067989     0.0013312611   0.10188616    -0.73593934   
    855000   1.0429955      0.0014321096   0.15706217    -0.80249364   
    856000   0.99631098     0.0012590265   0.14475542    -0.77185069   
    857000   0.99198763     0.00079574437  0.12215376    -0.79047486   
    858000   0.95516387     0.0010709649   0.10010844    -0.77864232   
    859000   0.97784211     0.00094268199  0.046850046   -0.85276469   
    860000   0.99796395     0.0018065689   0.10587289    -0.81225394   
    861000   0.99984606     0.00056868916  0.10739474    -0.81246363   
    862000   0.95119985     0.00031570083  0.050571419   -0.82453244   
    863000   1.0160376      0.00082775547  0.13870718    -0.79604746   
    864000   1.0270656      0.00067578045  0.11203618    -0.83286415   
    865000   0.99948152     0.0024343512   0.14170579    -0.77781721   
    866000   0.98623997     0.00057258898  0.1031968     -0.80414397   
    867000   0.99194524     0.00053749693  0.12322316    -0.78936645   
    868000   1.0253371      0.0016419487   0.15913751    -0.7841726    
    869000   1.0039725      0.0012139194   0.15010241    -0.7735523    
    870000   1.0970149      0.0014577065   0.25227646    -0.75697726   
    871000   0.98014847     0.00086820418  0.13089301    -0.77084358   
    872000   0.95185248     0.0014181018   0.13438617    -0.7413181    
    873000   1.0880833      0.0010216185   0.25460532    -0.74643132   
    874000   0.99068704     0.00072903981  0.21806514    -0.69336694   
    875000   0.98325282     0.0012543564   0.15712604    -0.74746655   
    876000   1.0013584      0.0011794096   0.17546118    -0.74578859   
    877000   0.98678557    -0.00027696627  0.15578278    -0.75205995   
    878000   0.92394921     0.0013463883   0.10053685    -0.74949642   
    879000   0.96833945    -2.557457e-05   0.13824113    -0.75263116   
    880000   1.0606335      0.00096684606  0.16626109    -0.80952175   
    881000   1.07443        0.00057053548  0.16186301    -0.82661263   
    882000   1.0070901      0.0018064472   0.14501083    -0.78151207   
    883000   0.890334       0.001271856    0.033702718   -0.78540456   
    884000   0.95578121    -2.2152584e-05  0.12415725    -0.75516146   
    885000   1.0030249      0.00048192887  0.19370347    -0.72907946   
    886000   1.0017559      0.00088625538  0.16277438    -0.75884105   
    887000   0.99130452     0.0012339488   0.11258043    -0.79941974   
    888000   0.99635907     0.00072140175  0.09328507    -0.82336527   
    889000   0.93693872     0.00057643667  0.064327561   -0.79765607   
    890000   1.0110085      0.00096916595  0.13890056    -0.79122724   
    891000   0.97636315     0.00096296077  0.100323      -0.7979311    
    892000   1.0711569      0.0014112142   0.18437975    -0.80108455   
    893000   1.0110386      0.00096998487  0.11830047    -0.81185505   
    894000   0.94131464     0.00027890114  0.057645722   -0.80836374   
    895000   1.1298575      0.0015736361   0.21040345    -0.82906541   
    896000   0.99083012     1.6793651e-05  0.088528225   -0.82303548   
    897000   0.96489062     0.0015544744   0.038314244   -0.84938513   
    898000   1.114216       0.00081911712  0.22072263    -0.80435613   
    899000   0.97846218     0.0013347727   0.061285069   -0.83890014   
    900000   0.98901676     5.799446e-05   0.089346178   -0.82054924   
    901000   0.93808424    -0.00012593521  0.020133833   -0.84290367   
    902000   0.97172302     0.00038189857  0.069682531   -0.82430265   
    903000   0.97059681     0.00099161652  0.048344961   -0.84460411   
    904000   1.0001788      0.00056010276  0.081766433   -0.83839807   
    905000   0.97688527     0.0011346312   0.057102435   -0.84163201   
    906000   0.87465491     0.00051498233 -0.012710351   -0.81739287   
    907000   0.93961675     0.00048676385  0.079888081   -0.78455932   
    908000   1.0221725      0.00095753414  0.15361992    -0.78677882   
    909000   1.0021419      0.00042680613  0.094385665   -0.82758485   
    910000   0.97618617     0.00096733032  0.093531759   -0.80455951   
    911000   0.88014572     0.0011948326  -0.0025883637  -0.81232243   
    912000   0.96026303     0.00088846266  0.067984918   -0.81545707   
    913000   1.0569229      0.0021255955   0.15823845    -0.81413061   
    914000   1.0279279      0.0013791205   0.16207294    -0.78362071   
    915000   0.99165744     0.00099168509  0.14392646    -0.76839838   
    916000   0.99555757     0.001129554    0.12683286    -0.78908011   
    917000   1.0176664     -2.329297e-05   0.13906798    -0.79718507   
    918000   1.0017527      0.0010491317   0.092741844   -0.82887062   
    919000   1.1126004      0.0016067481   0.20999144    -0.81360094   
    920000   1.0958066      0.00096471369  0.22000875    -0.78813334   
    921000   0.96036782     0.00096734633  0.062424885   -0.82111351   
    922000   1.0608579      0.0011435214   0.13197068    -0.84401854   
    923000   1.0640674      0.0015980865   0.15550471    -0.82343732   
    924000   0.97129828     0.0010409752   0.073460125   -0.82013429   
    925000   0.95077068     0.0010937792   0.057352426   -0.8173566    
    926000   1.0216813      0.0012933637   0.12995746    -0.80998935   
    927000   0.93053052     0.00041125255  0.053537817   -0.80255026   
    928000   1.0368056      8.5046478e-05  0.13940486    -0.81445628   
    929000   1.0111156      0.0010770374   0.164296      -0.76593037   
    930000   0.96890125     0.0011557297   0.085214651   -0.8061745    
    931000   0.90376574     0.0011663517   0.011814179   -0.8196503    
    932000   0.9682766      0.00092398788  0.10718986    -0.78362461   
    933000   1.0560545      0.00089165904  0.16487102    -0.80669915   
    934000   1.0237974      0.0012515858   0.11016456    -0.83172907   
    935000   0.98060069     0.0011879473   0.10279709    -0.79935554   
    936000   0.96459143     0.00024401971  0.070800397   -0.81662372   
    937000   0.9981187      0.00093575751  0.10184846    -0.81642075   
    938000   0.99363668     0.0014623609   0.10966881    -0.80447693   
    939000   0.95994792     0.0011241179   0.047325812   -0.83582627   
    940000   1.0512998      0.00062724057  0.13037277    -0.83682308   
    941000   0.97147512     0.0002492334   0.037953993   -0.85580312   
    942000   1.0154591      0.00052727862  0.091752998   -0.8424694    
    943000   0.91530247     0.0013982372  -0.019578257   -0.86165653   
    944000   1.0343291      0.0012891327   0.081834035   -0.86974878   
    945000   1.0320781     -4.7457757e-05  0.11976       -0.82975188   
    946000   0.95718589     0.0018501321   0.014366165   -0.86624486   
    947000   1.0287709      0.0014497981   0.06308351    -0.88338575   
    948000   0.9871215      0.001110613    0.074219538   -0.83393224   
    949000   1.017029       0.00095988905  0.062006949   -0.87365971   
    950000   1.0757642      0.0012374557   0.15047576    -0.83922734   
    951000   1.0537497      0.001108044    0.10525757    -0.86419213   
    952000   1.038868       0.0015979948   0.090746406   -0.86501215   
    953000   0.94646613    -9.0745311e-05  0.088521049   -0.78222779   
    954000   1.0018889      0.001147012    0.061915875   -0.85982188   
    955000   0.94261672     0.0011866534   0.011356644   -0.85585073   
    956000   1.0053333      0.0013088225   0.055984209   -0.8689224    
    957000   0.96192867     0.0013858825   0.063449395   -0.82152498   
    958000   0.93502756     0.0012308785   0.0191838     -0.84104155   
    959000   1.0638013      0.00024250819  0.12915649    -0.84954068   
    960000   1.0288992      0.00088391703  0.10736518    -0.8392221    
    961000   0.98915752     0.00024411025  0.061458467   -0.84856645   
    962000   1.0792576      0.002251192    0.11841001    -0.87450698   
    963000   1.0036031      0.00074354209  0.098710755   -0.82460413   
    964000   1.0781368      0.00072713474  0.15268545    -0.83920044   
    965000   0.93295815     0.00095900162  0.0056188957  -0.8527026    
    966000   1.0589684      0.00078809443  0.12067541    -0.8535755    
    967000   1.1027535      0.00099928325  0.15195095    -0.86258229   
    968000   0.97395793     4.7385991e-05  0.024173066   -0.87186823   
    969000   1.0879089      0.0001035989   0.17754005    -0.82333618   
    970000   0.98918287     0.00083605288  0.013214942   -0.8968333    
    971000   0.97449515    -0.00016403796  0.0048400423  -0.89169549   
    972000   0.99613259     0.00043447037  0.040572575   -0.87586941   
    973000   0.97792973     0.0012884472   0.045810581   -0.85388477   
    974000   0.92580819     0.001217617    0.026298605   -0.82544493   
    975000   0.98438213     0.00097123938  0.069147495   -0.83648407   
    976000   0.9891008      0.00042512292  0.032192985   -0.87777975   
    977000   1.0759701      0.00096500706  0.14900092    -0.84089153   
    978000   0.98179046     0.00042691355  0.1195128     -0.78373442   
    979000   0.95374651     0.00053812966  0.0744449     -0.80300189   
    980000   1.0163936      0.00012842126  0.085016308   -0.85006576   
    981000   0.95924418     0.00033560609  0.062045849   -0.8204588    
    982000   1.0606122      0.00036744475  0.14265269    -0.83311052   
    983000   1.0041924      0.00099955402  0.10911683    -0.81474014   
    984000   1.0026181      0.00053704628  0.067448387   -0.85496022   
    985000   1.0111753      0.0013334245   0.08579648    -0.84448476   
    986000   0.97423049     0.00086458895  0.080668011   -0.81562404   
    987000   0.91463319     0.0013128248  -0.0242685     -0.86573104   
    988000   1.0607198      0.0010551914   0.11910452    -0.85675773   
    989000   0.97069668     0.0009715374   0.060852825   -0.83218812   
    990000   0.96076673     0.0010398125   0.037703285   -0.84620211   
    991000   0.99054468     0.0019709191   0.10200083    -0.80930028   
    992000   1.0327465      0.0014251007   0.1014007     -0.84872612   
    993000   1.0500644      0.00093255834  0.13757775    -0.82848148   
    994000   1.0134584      0.00073424589  0.10746456    -0.82491716   
    995000   0.9490846     -0.00019053578  0.078938808   -0.79421903   
    996000   1.0340178      0.0014112454   0.095447728   -0.85584863   
    997000   1.0000048      0.00082781125  0.090576293   -0.82942808   
    998000   0.98048823     0.00063939332  0.041458852   -0.86059032   
    999000   0.90005081     0.001115733   -0.049910863   -0.8779576    
   1000000   1.0147381      0.00038219715  0.042857345   -0.89070173   
Loop time of 23.4927 on 1 procs for 1000000 steps with 450 atoms

Performance: 36777360.646 tau/day, 42566.390 timesteps/s
98.5% CPU use with 1 MPI tasks x no OpenMP threads

MPI task timing breakdown:
Section |  min time  |  avg time  |  max time  |%varavg| %total
---------------------------------------------------------------
Pair    | 2.1725     | 2.1725     | 2.1725     |   0.0 |  9.25
Bond    | 0.044697   | 0.044697   | 0.044697   |   0.0 |  0.19
Neigh   | 4.1787     | 4.1787     | 4.1787     |   0.0 | 17.79
Comm    | 0.84594    | 0.84594    | 0.84594    |   0.0 |  3.60
Output  | 0.39851    | 0.39851    | 0.39851    |   0.0 |  1.70
Modify  | 14.336     | 14.336     | 14.336     |   0.0 | 61.02
Other   |            | 1.516      |            |       |  6.45

Nlocal:            450 ave         450 max         450 min
Histogram: 1 0 0 0 0 0 0 0 0 0
Nghost:             27 ave          27 max          27 min
Histogram: 1 0 0 0 0 0 0 0 0 0
Neighs:            185 ave         185 max         185 min
Histogram: 1 0 0 0 0 0 0 0 0 0

Total # of neighbors = 185
Ave neighs/atom = 0.41111111
Ave special neighs/atom = 0
Neighbor list builds = 212565
Dangerous builds = 0
Total wall time: 0:00:23
