fix fLANG all langevin 1.0 1.0 1.0 100
neigh_modify exclude molecule/intra all
fix rigidNVE linked_vesicle rigid/nve molecule
  1 rigid bodies with 5 atoms
fix NVE synapsin nve 1.0 1.0 1.0

    ##======================================##
    ## Output
    ##======================================##

thermo 1000
thermo_style custom step temp press etotal epair
thermo_modify flush yes
timestep 0.01

    ##======================================##
    ## Equilibration before output
    ##======================================##


    ##======================================##
    ## Run with output
    ##======================================##

fix enforce_2d all enforce2d
dump 2 all custom 1000 Results_eps_attr5_eps_rep0_eps_rep_weak0_range2_attr_with_repFalse_n_synapsin400_n_vesicles1/Movie_2d_eps_attr5_eps_rep0_eps_rep_weak0_range2_attr_with_repFalse_n_synapsin400_n_vesicles1.xyz id type mol x y z
run 1000000
Generated 0 of 3 mixed pair_coeff terms from geometric mixing rule
Neighbor list info ...
  update every 1 steps, delay 1 steps, check yes
  max neighbors/atom: 2000, page size: 100000
  master list distance cutoff = 11.52462
  ghost atom cutoff = 11.52462
  binsize = 5.7623102, bins = 55 55 1
  1 neighbor lists, perpetual/occasional/extra = 1 0 0
  (1) pair cosine/squared, perpetual
      attributes: half, newton on
      pair build: half/bin/newton
      stencil: half/bin/2d
      bin: standard
Per MPI rank memory allocation (min/avg/max) = 8.526 | 8.526 | 8.526 Mbytes
   Step          Temp          Press          TotEng         E_pair    
         0   0.99492997     0.014648881    0.98387519     0            
      1000   1.0533782      0.0041940032   1.041674       0            
      2000   0.96392039     0.0043406822   0.95321017     0            
      3000   1.0616196      0.0049397464   1.0498239      0            
      4000   1.0469559      0.0049124651   1.0353231      0            
      5000   1.007185       0.0042549345   0.99461047    -0.0013835493 
      6000   0.98015479     0.005036487    0.96926418     0            
      7000   0.94934809     0.0037029134   0.9276159     -0.011183881  
      8000   1.0723941      0.0047804014   1.0363801     -0.024098512  
      9000   1.1126757      0.0047162939   1.0838971     -0.01641561   
     10000   1.0520129      0.0035250583   1.0160872     -0.024236657  
     11000   0.98025547     0.0052490354   0.95875436    -0.010609389  
     12000   0.93691215     0.0034272907   0.91415634    -0.012345679  
     13000   0.95823277     0.0039031177   0.94758574     0            
     14000   1.063325       0.0041929382   1.0515103      0            
     15000   0.96001116     0.0036800731   0.94934436     0            
     16000   0.95662482     0.0042204362   0.94482573    -0.0011699246 
     17000   1.002792       0.0045299165   0.97979258    -0.011857291  
     18000   1.0783129      0.0048517638   1.0555862     -0.01074548   
     19000   1.0017049      0.0038933676   0.97822912    -0.012345679  
     20000   0.98953372     0.003620322    0.96647145    -0.012067454  
     21000   0.95799287     0.0036955518   0.93612421    -0.01122429   
     22000   0.90053166     0.0037180294   0.88150393    -0.0090218173 
     23000   0.90293631     0.0045135887   0.8889142     -0.0039894853 
     24000   0.94539168     0.0038942382   0.92492199    -0.0099653339 
     25000   0.95626577     0.0037864159   0.92230611    -0.023334482  
     26000   0.97091563     0.0043097211   0.9266341     -0.033493577  
     27000   1.0258115      0.0046758493   0.97953087    -0.034882732  
     28000   1.0233286      0.0041021681   0.98718252    -0.024775788  
     29000   1.0341134      0.0041966871   0.98895035    -0.033672926  
     30000   0.95727794     0.0048852304   0.89825095    -0.04839057   
     31000   0.98298482     0.0031007884   0.93377878    -0.038283985  
     32000   1.0466977      0.0035076602   1.0018229     -0.033244828  
     33000   1.0247841      0.0033368312   0.979107      -0.034290576  
     34000   0.95751259     0.0039543519   0.91692241    -0.029951153  
     35000   1.0564117      0.0032174905   1.0024552     -0.042218592  
     36000   1.0009924      0.0048190021   0.94073374    -0.049136544  
     37000   1.0180803      0.0043625925   0.96128103    -0.045487262  
     38000   0.99223067     0.0043684095   0.94706945    -0.034136432  
     39000   0.91174295     0.0044828404   0.85511847    -0.046494001  
     40000   1.0348717      0.0046639055   0.98941229    -0.033960836  
     41000   0.93415766     0.0035046409   0.89476732    -0.029010809  
     42000   1.0316852      0.0036632105   0.99951399    -0.020708003  
     43000   0.9929102      0.003981784    0.9611456     -0.020732266  
     44000   1.0600702      0.0045454948   1.0267285     -0.0215631    
     45000   1.0270256      0.0046643535   0.99516641    -0.020447826  
     46000   1.0483682      0.0032600048   1.0165767     -0.020142928  
     47000   0.98651755     0.0034564845   0.95088159    -0.024674647  
     48000   1.0537395      0.0034368051   1.0177283     -0.024302908  
     49000   1.0041849      0.0047397703   0.9726412     -0.020386065  
     50000   0.95515101     0.0030996922   0.91577479    -0.028763434  
     51000   0.99988444     0.004030216    0.95787536    -0.03089926   
     52000   1.1024631      0.004994432    1.0480126     -0.042200874  
     53000   1.0215399      0.0032787255   0.95590451    -0.054284949  
     54000   1.0719615      0.0050496417   1.0044359     -0.055614987  
     55000   0.98950188     0.0044318935   0.91910605    -0.059401366  
     56000   1.0497999      0.0035615484   0.99588395    -0.042251526  
     57000   0.99560573     0.0047749542   0.94034811    -0.044195331  
     58000   0.96619549     0.0035873572   0.90214445    -0.053315534  
     59000   0.99740876     0.0049055821   0.9572849     -0.029041536  
     60000   0.99650516     0.0040333328   0.95250933    -0.032923553  
     61000   1.045875       0.0045322686   0.98887601    -0.045378151  
     62000   0.98029893     0.0044204935   0.93477503    -0.034631694  
     63000   1.0704372      0.0043935687   1.021845      -0.036698425  
     64000   0.99040689     0.003419938    0.94512522    -0.034277152  
     65000   1.0521098      0.0045255772   0.99829456    -0.042125165  
     66000   1.021444       0.0037609267   0.96510478    -0.044989842  
     67000   1.0010292      0.0033761365   0.95550889    -0.034397791  
     68000   0.9932971      0.0050236498   0.94971104    -0.032549426  
     69000   1.0008682      0.0031081661   0.95646684    -0.033280575  
     70000   1.0357639      0.0048394361   0.98808133    -0.03617405   
     71000   0.97117019     0.0038306366   0.92762806    -0.032751346  
     72000   1.057208       0.0049735689   1.0204861     -0.024975129  
     73000   0.96404821     0.0033435598   0.93488345    -0.018453117  
     74000   0.93863599     0.0041072263   0.90587698    -0.022329727  
     75000   1.0345866      0.0035354091   0.99967096    -0.02342025   
     76000   1.0621281      0.0043875623   1.0289889     -0.02133783   
     77000   1.0365632      0.0041239815   1.0245135     -0.00053236968
     78000   0.99022786     0.0044085699   0.97536642    -0.0038589113 
     79000   1.0303172      0.0042682224   1.0078942     -0.010974972  
     80000   1.0846452      0.0050676602   1.0638142     -0.0087794461 
     81000   0.97538915     0.0041859599   0.9408638     -0.023687685  
     82000   1.0148335      0.004712194    0.98277481    -0.020782734  
     83000   0.99257203     0.0036543723   0.9502879     -0.031255553  
     84000   0.9250987      0.0028842018   0.880341      -0.03447882   
     85000   0.94420004     0.0032631197   0.89857047    -0.035138465  
     86000   0.99183957     0.0042448119   0.94914837    -0.03167076   
     87000   0.96048106     0.0039588606   0.91472772    -0.035081325  
     88000   1.0159933      0.0044751536   0.96879264    -0.035911815  
     89000   0.98123974     0.0038402328   0.93448719    -0.035849893  
     90000   0.98472475     0.004999474    0.93723005    -0.036553316  
     91000   0.97909732     0.0040137037   0.93684261    -0.031375857  
     92000   1.0099292      0.0047122972   0.96271066    -0.035997056  
     93000   1.0395749      0.0045128857   1.0007382     -0.027285796  
     94000   0.99820561     0.0043069376   0.95496454    -0.032149903  
     95000   1.0154977      0.0038468886   0.97997377    -0.024240639  
     96000   1.0502805      0.0034140987   1.0179044     -0.020706326  
     97000   0.94797503     0.0043030281   0.91608604    -0.021355933  
     98000   0.98736945     0.0035154025   0.95337756    -0.023021119  
     99000   0.97036164     0.0029259189   0.94548838    -0.014091468  
    100000   0.97377329     0.0040992996   0.93893819    -0.024015401  
    101000   1.1124176      0.0050074335   1.0755025     -0.024554879  
    102000   0.97931075     0.0042002521   0.94666665    -0.021762878  
    103000   1.0872618      0.0035251076   1.0518216     -0.023359528  
    104000   0.97480333     0.003485195    0.94229415    -0.021678028  
    105000   0.99696169     0.0038232932   0.96361135    -0.022272997  
    106000   0.95827575     0.0042395739   0.92381949    -0.023808749  
    107000   1.0033527      0.0041504013   0.98153813    -0.010666247  
    108000   0.94589747     0.0032582967   0.92568172    -0.0097057809 
    109000   0.98076292     0.0041533961   0.95820863    -0.011656925  
    110000   1.0666546      0.0043456468   1.0301444     -0.024658461  
    111000   1.0228631      0.0046057636   0.97887722    -0.032620688  
    112000   1.0179017      0.0043913902   0.97310933    -0.033482332  
    113000   1.0171185      0.0037813314   0.98080565    -0.025011528  
    114000   1.0179782      0.0046229661   0.97208705    -0.034580306  
    115000   1.1264239      0.0047967261   1.0696249     -0.044283165  
    116000   1.0339392      0.0036651751   0.97699139    -0.045459585  
    117000   1.0297449      0.0044251408   0.97269006    -0.04561321   
    118000   1.0782496      0.0031762722   1.0301426     -0.036126395  
    119000   1.0564094      0.0043898709   1.0017655     -0.042905969  
    120000   1.0522676      0.004005795    0.99740674    -0.043169023  
    121000   1.0919543      0.0055854386   1.0379617     -0.041859766  
    122000   0.97818252     0.0036518152   0.9226451     -0.044668724  
    123000   1.0389245      0.0036178267   0.98975257    -0.037628357  
    124000   0.95578326     0.0045437489   0.9004463     -0.044717138  
    125000   0.97815075     0.0036853468   0.93778657    -0.029495838  
    126000   1.0143232      0.0042078022   0.95634905    -0.046703871  
    127000   1.0071713      0.0036954275   0.95563923    -0.040341234  
    128000   1.0592984      0.00428907     1.0060934     -0.041435038  
    129000   1.0024785      0.0041706476   0.95040984    -0.040930037  
    130000   0.9899879      0.0045873855   0.9365372     -0.042450835  
    131000   1.0182661      0.0040612949   0.97583929    -0.031112776  
    132000   0.94089839     0.0039911056   0.8845326     -0.045911366  
    133000   0.98776116     0.0035972903   0.93519112    -0.041594921  
    134000   1.0580438      0.0038139919   1.0226469     -0.023640859  
    135000   1.0678177      0.0037299611   1.0203892     -0.035563838  
    136000   0.89966917     0.0034259131   0.8540335     -0.035639341  
    137000   0.97546121     0.0048086292   0.92878406    -0.035838692  
    138000   0.9699144      0.0046551115   0.93576218    -0.023375396  
    139000   0.97227344     0.0037200841   0.92631487    -0.035155534  
    140000   0.99513821     0.0051171351   0.9495216     -0.03455952   
    141000   0.98645184     0.0046120497   0.9417027     -0.033788562  
    142000   1.0374744      0.004313148    0.9894579     -0.036489035  
    143000   0.93939929     0.0030667224   0.90085351    -0.02810801   
    144000   1.0387028      0.0042950041   1.0031951     -0.023966578  
    145000   0.91421568     0.0035297652   0.89177108    -0.012286647  
    146000   0.93938446     0.0041711902   0.90908871    -0.019858143  
    147000   1.0337412      0.0037002792   0.99130849    -0.030946716  
    148000   0.99511791     0.0025891567   0.94996176    -0.034099286  
    149000   0.92110696     0.0047030425   0.87875443    -0.032118007  
    150000   0.99517466     0.0038708068   0.95438132    -0.029735846  
    151000   0.9847535      0.0042408765   0.94105664    -0.032755154  
    152000   1.0748501      0.0046043202   1.0401973     -0.022710005  
    153000   1.0068346      0.0034045331   0.95891685    -0.036730743  
    154000   1.027656       0.0038696065   0.98480872    -0.031428847  
    155000   1.1059054      0.0053524563   1.0669961     -0.026621444  
    156000   1.0841221      0.0050300292   1.0303075     -0.041768789  
    157000   0.96551543     0.0037532818   0.90908992    -0.045697563  
    158000   1.0422622      0.0044922352   0.99530058    -0.03538094   
    159000   0.97083106     0.0048351815   0.92131603    -0.038728022  
    160000   0.98942264     0.0038148224   0.94187144    -0.03655762   
    161000   0.94094979     0.0039205283   0.8854705     -0.045024287  
    162000   1.0513035      0.0036774708   0.99143361    -0.048188778  
    163000   1.0289844      0.0033951688   0.9766871     -0.040864164  
    164000   1.0357431      0.0048198887   0.98978709    -0.034447779  
    165000   1.0594251      0.0040769832   1.0050906     -0.042563081  
    166000   0.93255665     0.0040046982   0.87851211    -0.043682793  
    167000   1.0079555      0.0036314812   0.95125651    -0.04549952   
    168000   1.0965897      0.0039293358   1.0407453     -0.043660078  
    169000   1.0336866      0.0035894643   0.97993313    -0.042268107  
    170000   0.98961676     0.004413877    0.93169301    -0.046928004  
    171000   1.014719       0.0033569765   0.95788217    -0.045562224  
    172000   1.049668       0.0040222678   0.99955361    -0.038451458  
    173000   1.0202434      0.0046252727   0.96762201    -0.041285304  
    174000   1.0710857      0.0036992053   1.0151828     -0.04400194   
    175000   0.9946467      0.0041897449   0.92796852    -0.055626554  
    176000   0.94904642     0.0034593873   0.88623087    -0.052270585  
    177000   0.98370052     0.0041894277   0.91637489    -0.056395624  
    178000   0.97531838     0.0045813144   0.90549863    -0.058982879  
    179000   1.0114438      0.0028520933   0.93552756    -0.06467797   
    180000   0.96947666     0.00360598     0.89146952    -0.06723518   
    181000   0.98820667     0.0037601608   0.93035666    -0.046869941  
    182000   0.99123199     0.0041541585   0.93634212    -0.043876175  
    183000   1.0363525      0.0044426669   0.95738136    -0.067456072  
    184000   1.0559763      0.0043474165   0.97870018    -0.065543036  
    185000   1.0086028      0.0044287471   0.94168384    -0.055712256  
    186000   0.98351103     0.0051107825   0.9319106     -0.040672529  
    187000   0.97785751     0.0039354157   0.8992897     -0.067702731  
    188000   1.0473047      0.0041916787   0.96706762    -0.068600317  
    189000   0.91679761     0.0038418263   0.845559      -0.061051969  
    190000   1.0566657      0.0044326666   1.0016476     -0.043277407  
    191000   1.0541502      0.0051394964   0.97053143    -0.071905988  
    192000   1.050198       0.0044474228   0.97590231    -0.062626852  
    193000   1.0036523      0.0043838887   0.95356301    -0.038937609  
    194000   0.99023767     0.004022449    0.9195958     -0.059639225  
    195000   1.0626924      0.0042808392   0.98991355    -0.060971159  
    196000   1.0397738      0.0038590018   0.97939585    -0.048824881  
    197000   0.98225838     0.0038752405   0.92291605    -0.048428352  
    198000   0.93535683     0.0032078546   0.86733685    -0.057627128  
    199000   0.96000495     0.0033374904   0.87681683    -0.072521393  
    200000   1.0064382      0.0037903902   0.93561451    -0.059641003  
    201000   1.0263262      0.0037614734   0.96138451    -0.053538065  
    202000   1.0124783      0.0036742215   0.95410774    -0.047120847  
    203000   0.92805189     0.0030783849   0.85941714    -0.058323066  
    204000   0.97511937     0.003883504    0.89762713    -0.066657586  
    205000   0.96169637     0.0045985504   0.9111392     -0.039871656  
    206000   0.95782425     0.0043128482   0.89454273    -0.052639027  
    207000   1.0436399      0.0045578112   0.96560086    -0.066443032  
    208000   0.97111359     0.0034436081   0.88541625    -0.074907195  
    209000   0.99822732     0.0052716921   0.90490204    -0.082233869  
    210000   1.0188997      0.0038892388   0.93790198    -0.069676588  
    211000   1.0377459      0.0043494533   0.95178096    -0.074434438  
    212000   0.98997211     0.0038365215   0.90320856    -0.075763854  
    213000   0.97417225     0.0048115582   0.88762381    -0.075724306  
    214000   1.024743       0.0031670873   0.92719385    -0.086163074  
    215000   1.0167025      0.0049625894   0.91383283    -0.091573001  
    216000   0.98416398     0.0032786905   0.88874581    -0.084483014  
    217000   0.95101229     0.0051682113   0.86741027    -0.073035213  
    218000   1.0210055      0.004533356    0.93018805    -0.079472934  
    219000   0.9844777      0.003958824    0.92645511    -0.047083946  
    220000   1.0452361      0.0033398508   0.98769809    -0.045924284  
    221000   1.103803       0.0044937871   1.0230002     -0.068538402  
    222000   1.0045385      0.0042659125   0.94898432    -0.044392676  
    223000   0.95915453     0.0040279675   0.9062819     -0.04221536   
    224000   1.0039839      0.004561925    0.94742361    -0.045404956  
    225000   1.0206723      0.0042249999   0.96356198    -0.045769492  
    226000   0.96897365     0.0033288413   0.91431926    -0.043888013  
    227000   1.0691606      0.00429816     1.0219087     -0.035372367  
    228000   1.0521938      0.00435507     0.98055641    -0.059946369  
    229000   1.0800651      0.0035003638   1.0236277     -0.044436601  
    230000   0.98051025     0.0034757919   0.91912269    -0.050493006  
    231000   1.0278214      0.0035033051   0.97047268    -0.045928475  
    232000   1.062348       0.0045307231   1.0060397     -0.044504379  
    233000   1.0031151      0.0044766266   0.95631604    -0.035653352  
    234000   0.9282456      0.0034836261   0.87436601    -0.043565748  
    235000   1.0032008      0.0038477431   0.94651914    -0.045535021  
    236000   1.0811831      0.0038473298   1.0318424     -0.03732761   
    237000   1.0633206      0.0048019327   1.0120506     -0.039455415  
    238000   1.0034622      0.0047204434   0.94552761    -0.046785044  
    239000   0.92863907     0.0047318477   0.87111135    -0.047209508  
    240000   0.98095914     0.0046292084   0.9270765     -0.042983094  
    241000   0.92304409     0.0031044478   0.85354097    -0.059247071  
    242000   0.99169488     0.0039059272   0.90774863    -0.072927412  
    243000   0.9295218      0.0040674394   0.85252023    -0.066673556  
    244000   0.94598521     0.0054451872   0.86411235    -0.07136192   
    245000   0.94420439     0.0029172102   0.87844686    -0.055266366  
    246000   0.98863026     0.0027371639   0.8951866     -0.082458876  
    247000   1.0836532      0.0036563495   0.98968666    -0.081925934  
    248000   0.98200619     0.0041017067   0.88114475    -0.089950255  
    249000   1.0732874      0.0041832982   1.001952      -0.059409969  
    250000   0.97185423     0.0040473036   0.88401341    -0.077042439  
    251000   0.92950529     0.0032372087   0.8568105     -0.062366952  
    252000   0.95921604     0.0044101671   0.86746365    -0.081094436  
    253000   0.97713882     0.0046663661   0.91217016    -0.054111559  
    254000   1.0324039      0.0029352198   0.94756748    -0.07336528   
    255000   0.93223742     0.0033445082   0.88121508    -0.040664143  
    256000   0.94224278     0.0041175926   0.86942898    -0.062344436  
    257000   1.0088371      0.0041477136   0.91374368    -0.083884169  
    258000   1.022463       0.004342448    0.94184237    -0.069259951  
    259000   1.022263       0.0037893349   0.94239801    -0.068506504  
    260000   0.91382775     0.0041642263   0.82423517    -0.079438936  
    261000   1.0047472      0.0043797788   0.91891064    -0.074672686  
    262000   0.96415166     0.0046770895   0.89177823    -0.061660637  
    263000   0.93825368     0.0035145385   0.86605651    -0.061772133  
    264000   1.0001243      0.0033577552   0.92461441    -0.064397395  
    265000   1.0288645      0.0037326407   0.94712098    -0.070311659  
    266000   0.99003219     0.0043062299   0.91091081    -0.068121025  
    267000   0.93314929     0.0042700913   0.85196849    -0.070812471  
    268000   0.99627723     0.0034693532   0.91867217    -0.066535317  
    269000   0.97821407     0.0028741056   0.89731015    -0.070034874  
    270000   1.0409668      0.003648132    0.96643335    -0.062967178  
    271000   1.0190207      0.003834635    0.952828      -0.054870212  
    272000   0.95577041     0.0041214787   0.87461897    -0.070531773  
    273000   1.0131008      0.0031166716   0.95412131    -0.047722811  
    274000   0.99257551     0.0039386124   0.91634601    -0.065200883  
    275000   0.98955064     0.0043848133   0.91143124    -0.067124393  
    276000   1.0186233      0.0046896306   0.95205749    -0.055247787  
    277000   0.89534325     0.0044112912   0.83305565    -0.05233935   
    278000   1.0284783      0.0051136906   0.95913055    -0.057920212  
    279000   0.9752725      0.0046741898   0.93157536    -0.032860776  
    280000   1.0156894      0.0034172839   0.9655433     -0.038860702  
    281000   1.0652672      0.0032308862   1.0142033     -0.039227626  
    282000   1.0578815      0.0034553815   1.0037807     -0.042346569  
    283000   0.91250065     0.0040617927   0.85261297    -0.049748779  
    284000   1.0247579      0.0036104715   0.97474587    -0.038625787  
    285000   1.0292254      0.0042879726   0.97275221    -0.045037311  
    286000   1.0186121      0.0034165703   0.95043765    -0.056856547  
    287000   1.0233635      0.0042311427   0.95453931    -0.057453466  
    288000   0.92156912     0.0041288956   0.85916566    -0.052163809  
    289000   0.96258884     0.0033229198   0.89704029    -0.054853109  
    290000   1.0065607      0.0041624912   0.95268385    -0.042692835  
    291000   0.94833149     0.0039081218   0.88421083    -0.053583651  
    292000   1.0006937      0.0039042642   0.91937597    -0.070198924  
    293000   0.98814179     0.0038004696   0.90483797    -0.072324466  
    294000   0.94633374     0.0033932194   0.86365562    -0.072163305  
    295000   1.0327596      0.0031821678   0.96543814    -0.055846335  
    296000   0.90630029     0.0038624028   0.81890139    -0.0773289    
    297000   1.0144714      0.0042316265   0.92064017    -0.082559353  
    298000   1.0635225      0.0038541488   0.9791423     -0.072563325  
    299000   0.9626026      0.0036909223   0.88423528    -0.067671735  
    300000   0.9986437      0.0047919791   0.89149814    -0.096049517  
    301000   1.0149183      0.0040641291   0.91444962    -0.089191758  
    302000   0.9686536      0.0045093      0.87277713    -0.085113653  
    303000   1.0060105      0.0043632561   0.91228494    -0.082547691  
    304000   0.98112858     0.0040519662   0.88446327    -0.085763879  
    305000   1.0141739      0.0042199327   0.92020975    -0.082695528  
    306000   0.98628803     0.0032597234   0.8875083     -0.087820973  
    307000   1.0657732      0.0040826692   0.96688869    -0.087042595  
    308000   1.0019546      0.0044947094   0.91251748    -0.078304282  
    309000   0.90096644     0.0045371328   0.80506615    -0.085889542  
    310000   0.99703873     0.0043831885   0.89962093    -0.0863396    
    311000   0.99931233     0.003518029    0.92173796    -0.066470901  
    312000   1.0457841      0.0036940947   0.95441894    -0.079745308  
    313000   1.0037955      0.003667771    0.93141181    -0.06123036   
    314000   0.93511446     0.0041138785   0.84043133    -0.08429296   
    315000   1.0687026      0.0040762098   0.97374983    -0.08307827   
    316000   0.95637058     0.0049169108   0.8846571     -0.061087139  
    317000   0.94724303     0.0028179956   0.87226335    -0.064454764  
    318000   1.0472385      0.0046139245   0.95496495    -0.080637597  
    319000   1.0571423      0.004175569    0.96292808    -0.082468154  
    320000   0.98408676     0.0039333811   0.86803001    -0.10512245   
    321000   0.92800622     0.0040992095   0.80864953    -0.10904551   
    322000   1.0336256      0.0049258086   0.94615245    -0.075988415  
    323000   1.0863427      0.0040364743   0.99350686    -0.080765402  
    324000   0.94187013     0.0034350623   0.84241745    -0.08898746   
    325000   0.99469289     0.0035183717   0.91868787    -0.064952875  
    326000   1.0753658      0.0049590365   0.98891741    -0.074499849  
    327000   1.0322883      0.0032367305   0.90472229    -0.11609613   
    328000   1.0004092      0.0041299304   0.88538787    -0.10390567   
    329000   0.98120888     0.0029940458   0.87654193    -0.093764631  
    330000   1.064978       0.0044842914   0.949192      -0.10395293   
    331000   1.0214694      0.0036649612   0.90953012    -0.10058966   
    332000   1.0447884      0.0034780344   0.95575772    -0.077421918  
    333000   1.0010337      0.004464131    0.90910077    -0.080810298  
    334000   1.0129752      0.004171503    0.92580928    -0.07591065   
    335000   0.9578017      0.003376026    0.86069564    -0.086463817  
    336000   1.0192176      0.003995489    0.91439797    -0.093494953  
    337000   1.0460737      0.0042351806   0.943589      -0.090861691  
    338000   1.0421822      0.0039106121   0.92079168    -0.10981075   
    339000   1.0376053      0.0049098666   0.91073407    -0.11534225   
    340000   1.0292221      0.0036286326   0.91848239    -0.099303891  
    341000   0.95737945     0.0048735103   0.86179304    -0.084948859  
    342000   0.95849714     0.0039611383   0.85594649    -0.091900685  
    343000   1.0361169      0.0041099343   0.93703162    -0.087572858  
    344000   1.1300815      0.004056677    1.0220512     -0.095473902  
    345000   0.92878617     0.0028444652   0.80876656    -0.10969977   
    346000   1.0035875      0.0033437565   0.89995543    -0.092481132  
    347000   1.1116883      0.0043613892   0.9901961     -0.10914012   
    348000   0.99374687     0.0048017377   0.88383221    -0.09887303   
    349000   1.0202915      0.0039978095   0.90016141    -0.10879355   
    350000   0.92663165     0.0033234766   0.79214236    -0.12419338   
    351000   0.96899399     0.0052264918   0.85329892    -0.10492847   
    352000   1.0794117      0.0041162139   0.95883259    -0.10858564   
    353000   1.0003152      0.003826463    0.88164406    -0.1075565    
    354000   0.93994031     0.0041438507   0.82039449    -0.10910203   
    355000   0.98995013     0.0042279476   0.87260063    -0.10635006   
    356000   0.99718041     0.0044618374   0.87991941    -0.10618121   
    357000   0.98077901     0.0034922663   0.87857904    -0.091302426  
    358000   0.9531545      0.0043975859   0.83236017    -0.11020372   
    359000   0.99590586     0.0035438704   0.88021614    -0.10462411   
    360000   0.95496757     0.0041440116   0.85087582    -0.093481002  
    361000   1.0670203      0.0048198567   0.9461563     -0.10900817   
    362000   1.0367782      0.004132444    0.93672985    -0.088528544  
    363000   1.0124424      0.0042166292   0.90984809    -0.0913449    
    364000   0.96004548     0.0047944977   0.84495281    -0.1044255    
    365000   1.0133028      0.0025470487   0.88899354    -0.11305031   
    366000   1.0244076      0.0049436908   0.90029588    -0.11272945   
    367000   1.0316624      0.0039717427   0.90221521    -0.11798428   
    368000   0.94018304     0.0038134636   0.8041513     -0.12558526   
    369000   0.88358825     0.0038995431   0.74711155    -0.12665905   
    370000   0.98750761     0.0031290445   0.84405109    -0.13248421   
    371000   1.0426959      0.0046239866   0.89251443    -0.13859595   
    372000   1.0452819      0.0046416698   0.90455478    -0.1291129    
    373000   0.97483678     0.0028224744   0.83404916    -0.1299561    
    374000   0.97439677     0.0044410497   0.81677028    -0.14679986   
    375000   1.0398183      0.0026341104   0.89882084    -0.12944395   
    376000   0.96606135     0.0028637238   0.81556845    -0.13975888   
    377000   0.95265531     0.0028388593   0.80559508    -0.13647517   
    378000   1.0229813      0.0051306603   0.88983689    -0.12177793   
    379000   0.98746177     0.0038096561   0.83468125    -0.14180872   
    380000   0.96091247     0.0035929877   0.80798902    -0.14224665   
    381000   1.0111453      0.0037562224   0.82199881    -0.17791157   
    382000   0.99729042     0.0040108795   0.850754      -0.13545542   
    383000   1.0710285      0.0032169324   0.90964956    -0.14947865   
    384000   1.0291926      0.0044335556   0.87622985    -0.14152732   
    385000   1.0024794      0.0042116086   0.83986107    -0.15147971   
    386000   1.0522936      0.0039021054   0.89692557    -0.14367585   
    387000   0.94955046     0.0047779274   0.79585045    -0.14314944   
    388000   0.9809924      0.0040151045   0.84691231    -0.12318017   
    389000   1.0147684      0.0033841598   0.87390657    -0.12958667   
    390000   1.001548       0.0037006971   0.85668548    -0.1337342    
    391000   1.0933218      0.0044683685   0.96790213    -0.11327166   
    392000   1.0020754      0.0038507842   0.83321898    -0.15772224   
    393000   1.0303252      0.0040898084   0.85390882    -0.16496834   
    394000   1.0894832      0.0040765327   0.92474162    -0.15263625   
    395000   1.0059122      0.0032565776   0.8352712     -0.15946418   
    396000   0.9463827      0.0049083441   0.78603617    -0.14983117   
    397000   1.0048712      0.0039547419   0.85069374    -0.14301225   
    398000   0.97974123     0.0046286294   0.83480438    -0.13405084   
    399000   0.92908707     0.0033723609   0.80545521    -0.11330867   
    400000   1.0810521      0.0047868881   0.93618844    -0.13285196   
    401000   1.0444582      0.003500058    0.92002912    -0.11282399   
    402000   0.95863756     0.0039357479   0.8243033     -0.12368273   
    403000   1.0404763      0.0041510247   0.91990435    -0.10901108   
    404000   0.97334573     0.0030242225   0.81988195    -0.14264882   
    405000   1.0436527      0.0036147715   0.89709409    -0.13496249   
    406000   0.99927695     0.0047670143   0.85891089    -0.12926298   
    407000   0.99953806     0.0034688041   0.85079426    -0.13763782   
    408000   1.006368       0.0038848274   0.86253563    -0.13265046   
    409000   1.0791639      0.003034509    0.9441257     -0.12304745   
    410000   0.96778913     0.0046026409   0.84829736    -0.10873856   
    411000   0.93453568     0.0032938709   0.79658206    -0.12756989   
    412000   0.98907763     0.003781083    0.85839901    -0.11968886   
    413000   1.0255888      0.0036169827   0.89500549    -0.11918784   
    414000   0.97961785     0.0040976719   0.83975483    -0.12897838   
    415000   0.9814065      0.0036260908   0.83106985    -0.13943213   
    416000   1.07024        0.0036128142   0.92849007    -0.12985832   
    417000   0.94892799     0.0037973684   0.79804992    -0.14033442   
    418000   1.0211318      0.0041420369   0.87382986    -0.13595603   
    419000   0.90275808     0.0034952775   0.75598547    -0.13674196   
    420000   0.96426672     0.0036766689   0.82397514    -0.12957751   
    421000   1.0591317      0.0043275753   0.9197857     -0.12757791   
    422000   1.0215197      0.0044224939   0.89666616    -0.11350333   
    423000   0.98567158     0.003312453    0.86742292    -0.10729675   
    424000   0.99544553     0.0034380511   0.862845      -0.12154003   
    425000   1.0175018      0.0047314852   0.88738517    -0.11881103   
    426000   1.0111931      0.0047687309   0.87416945    -0.12578821   
    427000   0.92653052     0.0042359728   0.78736071    -0.12887503   
    428000   1.0531437      0.003338672    0.93854226    -0.10289982   
    429000   0.9094213      0.003794277    0.80326928    -0.096047342  
    430000   0.97951459     0.0043778347   0.87233149    -0.096299606  
    431000   0.96363567     0.0038068475   0.8649692     -0.087959415  
    432000   1.0712617      0.0041630096   0.97006418    -0.089294587  
    433000   0.90271521     0.0046172067   0.78615935    -0.10652569   
    434000   0.96522471     0.0032028409   0.83157618    -0.12292381   
    435000   1.0459208      0.0040655209   0.92155112    -0.11274831   
    436000   0.98724096     0.0032815253   0.85609508    -0.12017653   
    437000   1.0580653      0.0037643236   0.94329055    -0.10301847   
    438000   0.93091982     0.0033392292   0.80067068    -0.11990558   
    439000   1.0444654      0.0047947475   0.88735052    -0.14550972   
    440000   1.0160908      0.0044800928   0.85378066    -0.15102029   
    441000   1.0072547      0.0041628764   0.85745297    -0.13861      
    442000   0.98364435     0.0035827242   0.8564998     -0.11621517   
    443000   1.0596604      0.0038587354   0.91417543    -0.13371097   
    444000   0.96909906     0.003917943    0.85203129    -0.10630001   
    445000   1.0130365      0.0042672644   0.87778102    -0.12399955   
    446000   1.0167085      0.0046330398   0.86332735    -0.1420844    
    447000   1.0692117      0.0034876801   0.91657153    -0.14076005   
    448000   0.93963368     0.0040046249   0.79059157    -0.13860174   
    449000   0.90906548     0.0032390669   0.75927713    -0.13968762   
    450000   0.99580019     0.0039706615   0.8616065     -0.12312924   
    451000   0.9114627      0.0037039668   0.76082664    -0.1405087    
    452000   1.0373706      0.0035017632   0.88694464    -0.1388996    
    453000   1.0296196      0.0036247219   0.85976817    -0.15841125   
    454000   1.0047059      0.0043365175   0.85125081    -0.14229173   
    455000   0.97052814     0.0037278606   0.79992066    -0.15982384   
    456000   0.98256858     0.0036479911   0.81171202    -0.15993913   
    457000   1.1015959      0.0038807082   0.91250776    -0.17684817   
    458000   1.0318611      0.0038900931   0.88873513    -0.13166084   
    459000   0.9843669      0.0032924265   0.81309537    -0.16033412   
    460000   0.93987244     0.0032178696   0.78877912    -0.14065029   
    461000   1.0790771      0.0040201732   0.94842967    -0.11865767   
    462000   0.95019632     0.0034330454   0.79598495    -0.14365364   
    463000   0.96501053     0.0037852217   0.81361198    -0.1406762    
    464000   0.89929245     0.002793178    0.72864393    -0.16065638   
    465000   0.98288666     0.0043626642   0.82800057    -0.14396513   
    466000   0.94125132     0.0042862656   0.77409888    -0.15669409   
    467000   0.98606883     0.0049191705   0.82514362    -0.14996889   
    468000   0.98443008     0.0039356987   0.83364148    -0.13985049   
    469000   1.0702576      0.0046782666   0.94310777    -0.11525812   
    470000   0.99854641     0.0043851277   0.84820323    -0.13924821   
    471000   0.97534446     0.0043225568   0.85509189    -0.10941541   
    472000   1.0394         0.0025791357   0.90266994    -0.12518115   
    473000   1.0593666      0.0045247116   0.90595652    -0.14163936   
    474000   1.0529709      0.0052127263   0.90348696    -0.13778426   
    475000   1.0189016      0.0043997318   0.850703      -0.15687751   
    476000   1.011429       0.0040078535   0.8756157     -0.12457518   
    477000   1.0476521      0.0041291603   0.92294132    -0.11307018   
    478000   0.92271258     0.0037336418   0.80862657    -0.10383365   
    479000   0.99438629     0.0034706545   0.85934229    -0.12399526   
    480000   1.009707       0.0043248175   0.86759408    -0.13089394   
    481000   1.0278453      0.004229467    0.88550301    -0.13092183   
    482000   1.1116099      0.003684768    0.96980671    -0.12945194   
    483000   0.93564089     0.0041658005   0.81365837    -0.11158651   
    484000   1.0146639      0.0041859834   0.84858316    -0.15480665   
    485000   1.0170412      0.003152983    0.86439985    -0.1413409    
    486000   0.99650271     0.0041699629   0.83422776    -0.15120269   
    487000   0.99323725     0.0041561909   0.83006083    -0.15214045   
    488000   0.95804518     0.0033800191   0.83882163    -0.1085786    
    489000   0.99139514     0.0037221674   0.83164349    -0.14873615   
    490000   1.0734173      0.0039983277   0.91378036    -0.14771009   
    491000   0.99733064     0.0042173118   0.84766976    -0.13857943   
    492000   0.98210616     0.0038647803   0.83934334    -0.13185053   
    493000   1.0108974      0.0041723682   0.8502796     -0.14938565   
    494000   1.0153776      0.0041189445   0.8805988     -0.12349683   
    495000   0.95865457     0.0038050322   0.84336522    -0.10463764   
    496000   0.93375283     0.0038368792   0.78328329    -0.14009451   
    497000   1.0408498      0.0037687145   0.87363059    -0.15565426   
    498000   1.0070498      0.0042159088   0.8340588     -0.16180151   
    499000   1.0280267      0.0041914196   0.8899528     -0.12665141   
    500000   0.98100785     0.004799772    0.82143916    -0.1486686    
    501000   1.0655478      0.0048083237   0.90653187    -0.14717654   
    502000   1.0208958      0.0039740993   0.88112099    -0.12843156   
    503000   0.9834444      0.0043036398   0.83814915    -0.13436809   
    504000   1.0047869      0.0048463657   0.86915883    -0.12446374   
    505000   0.94661233     0.0045681714   0.802813      -0.13328142   
    506000   1.0153605      0.0047727688   0.89924557    -0.10483313   
    507000   1.0325491      0.0045701174   0.93876341    -0.082312941  
    508000   0.9754285      0.0041543645   0.85314897    -0.11144144   
    509000   1.0282715      0.0034632107   0.90527435    -0.11157195   
    510000   1.0341746      0.0033839082   0.89598467    -0.12669915   
    511000   1.0146507      0.0039081748   0.85397528    -0.14940153   
    512000   1.0633043      0.0041690383   0.9360946     -0.11539522   
    513000   1.0537         0.0042743566   0.90589526    -0.13609701   
    514000   1.0842584      0.0050328512   0.93123785    -0.14097327   
    515000   0.979769       0.0025306357   0.83272189    -0.13616078   
    516000   1.0384001      0.0039970394   0.88502341    -0.14183893   
    517000   1.0176731      0.0035767859   0.86884312    -0.13752251   
    518000   1.0019635      0.0040120457   0.84140596    -0.14942461   
    519000   0.98147114     0.003137636    0.80388438    -0.16668153   
    520000   1.0806941      0.0041938725   0.89651549    -0.17217085   
    521000   0.9147317      0.0034416906   0.75764643    -0.14692158   
    522000   0.92269969     0.0034120391   0.75402737    -0.15842011   
    523000   1.022578       0.0030780826   0.84018867    -0.17102732   
    524000   1.0769695      0.0036738882   0.93236737    -0.13263585   
    525000   0.96745486     0.0038320608   0.81651058    -0.14019478   
    526000   0.99004636     0.0033378748   0.81973789    -0.15930795   
    527000   1.0457772      0.0034708791   0.89357832    -0.14057916   
    528000   1.0283987      0.0049352121   0.87030423    -0.14666785   
    529000   0.94519537     0.0032738328   0.80025044    -0.13444277   
    530000   0.97245361     0.0044662732   0.81174516    -0.14990341   
    531000   0.99184769     0.0046704887   0.84079937    -0.14002779   
    532000   1.0002205      0.0039906356   0.83358012    -0.15552684   
    533000   1.0138953      0.0043985026   0.84323867    -0.15939116   
    534000   0.90725074     0.0029623688   0.73752587    -0.15964431   
    535000   1.0752063      0.0042151756   0.8850761     -0.17818344   
    536000   0.98942154     0.0039352907   0.78440051    -0.19402746   
    537000   1.0404499      0.0032624979   0.8503181     -0.17857123   
    538000   1.0389812      0.0043954118   0.86115431    -0.16628266   
    539000   0.96622435     0.0045739611   0.79303919    -0.16244933   
    540000   1.0062943      0.005058254    0.81311731    -0.18199592   
    541000   1.0318293      0.0040222997   0.85241037    -0.16795417   
    542000   0.99876824     0.0028617012   0.82842007    -0.15925075   
    543000   1.0383231      0.0041007035   0.87005009    -0.15673612   
    544000   0.99686817     0.0039214442   0.86165333    -0.12413852   
    545000   0.99026816     0.0042375679   0.86907324    -0.11019194   
    546000   0.97850265     0.0026757947   0.80462704    -0.16300336   
    547000   1.0193962      0.0042627003   0.84680623    -0.16126333   
    548000   1.0582418      0.0044053155   0.88626088    -0.16022265   
    549000   1.0027567      0.0039888435   0.84250566    -0.14910931   
    550000   1.1007623      0.0045925522   0.92586698    -0.16266461   
    551000   0.9377138      0.0030383172   0.77682386    -0.1504709    
    552000   0.94114965     0.003433784    0.75916911    -0.17152332   
    553000   1.0784749      0.0037771485   0.89508075    -0.17141112   
    554000   0.98437063     0.003001299    0.81094173    -0.16249144   
    555000   1.0184913      0.0034447342   0.82894483    -0.17822989   
    556000   1.0172406      0.0043622473   0.85488983    -0.15104807   
    557000   1.084475       0.0045125558   0.90375568    -0.16866959   
    558000   0.98059391     0.0045630241   0.84338212    -0.1263163    
    559000   1.0003304      0.0043592382   0.83334283    -0.15587277   
    560000   1.0419441      0.0039648961   0.86971779    -0.16064919   
    561000   1.0304725      0.0034357101   0.88470453    -0.13431829   
    562000   0.97977836     0.0036978417   0.839811      -0.12908093   
    563000   1.0070653      0.0038876041   0.871591      -0.12428471   
    564000   1.0726204      0.0042494625   0.92639009    -0.13431235   
    565000   1.0016023      0.0044867415   0.85768587    -0.13278747   
    566000   1.0308409      0.0045850295   0.89539177    -0.12399535   
    567000   0.93822482     0.0042091292   0.79677946    -0.13102064   
    568000   0.97875642     0.003686014    0.85407826    -0.11380309   
    569000   0.96895642     0.0035870821   0.85937554    -0.098814695  
    570000   1.0228231      0.0031691594   0.87636866    -0.13508969   
    571000   1.0327512      0.0056428572   0.87880698    -0.14246918   
    572000   1.0207596      0.0045064309   0.86345299    -0.14596486   
    573000   1.036983       0.0037871491   0.90467991    -0.12078105   
    574000   1.0218431      0.0040325278   0.86745141    -0.14303791   
    575000   1.0840147      0.0044686843   0.92505839    -0.14691172   
    576000   1.0207843      0.0040632408   0.86141989    -0.14802237   
    577000   1.03067        0.0038155209   0.89997809    -0.11924005   
    578000   0.97504464     0.0038235504   0.81219231    -0.1520185    
    579000   0.9476091      0.0028750475   0.7722491     -0.16483101   
    580000   0.86392748     0.0024765097   0.70232199    -0.1520063    
    581000   0.99945885     0.0047120216   0.85288106    -0.13547269   
    582000   1.0767433      0.004784995    0.915075      -0.14970444   
    583000   1.0807574      0.0035886472   0.92706248    -0.14168647   
    584000   0.95506928     0.003847941    0.8169457     -0.1275117    
    585000   0.88322096     0.0032502391   0.72424594    -0.14916146   
    586000   1.0253891      0.0032642976   0.89961712    -0.1143788    
    587000   1.0925292      0.0051656495   0.93184302    -0.14854695   
    588000   1.0011524      0.0039064123   0.85913891    -0.13088954   
    589000   1.0700382      0.0041872169   0.93022949    -0.12791943   
    590000   1.0003683      0.0037957244   0.83645014    -0.15280296   
    591000   1.0749561      0.0040970858   0.93502257    -0.12798961   
    592000   0.8623142      0.0030881994   0.71324384    -0.1394891    
    593000   1.0398688      0.0046422374   0.88283728    -0.14547745   
    594000   0.95328612     0.0042705108   0.80058965    -0.1421044    
    595000   0.96039479     0.0037534869   0.80014206    -0.14958168   
    596000   1.0201942      0.0042068508   0.86401029    -0.1448484    
    597000   1.0242652      0.0043768282   0.90120403    -0.11168045   
    598000   1.0155985      0.0034101484   0.87485674    -0.12945732   
    599000   0.99542542     0.0036737222   0.83462202    -0.14974312   
    600000   1.0933644      0.0036375303   0.96915127    -0.11206466   
    601000   0.98586931     0.0034575228   0.83830842    -0.13660679   
    602000   1.0094972      0.0037739674   0.86458245    -0.13369814   
    603000   0.96303206     0.0043929112   0.81729217    -0.13503954   
    604000   0.92216779     0.0035734709   0.76499044    -0.14693104   
    605000   0.98445663     0.0023774549   0.85021794    -0.12330028   
    606000   0.98155872     0.0035622688   0.84347892    -0.1271736    
    607000   1.0119719      0.0044812189   0.8880221     -0.11270566   
    608000   1.0434264      0.0030825532   0.91858087    -0.11325189   
    609000   0.970262       0.0038436382   0.83566642    -0.12381489   
    610000   0.98717028     0.0040134448   0.84797031    -0.12823141   
    611000   0.92756342     0.0042349478   0.80063011    -0.11662704   
    612000   0.99733629     0.0038593022   0.86156496    -0.12468981   
    613000   1.0111964      0.0032940375   0.85386198    -0.14609894   
    614000   1.0146227      0.0041220325   0.86337982    -0.13996927   
    615000   1.0569985      0.0040497043   0.91656859    -0.12868545   
    616000   1.0550873      0.002795857    0.91568502    -0.12767909   
    617000   0.93550774     0.0030629245   0.78258541    -0.1425278    
    618000   0.99832156     0.0039324935   0.86391749    -0.1233116    
    619000   1.0783764      0.004597165    0.91818628    -0.14820817   
    620000   0.98055948     0.0037174575   0.82401803    -0.14564635   
    621000   0.95135615     0.0037661663   0.7887081     -0.15207742   
    622000   0.91253179     0.0037713827   0.76114796    -0.1412446    
    623000   0.93517676     0.0037996456   0.78245049    -0.14233541   
    624000   1.037164       0.0038434346   0.86155235    -0.16408764   
    625000   0.99415044     0.0039885222   0.83709581    -0.14600851   
    626000   1.0272826      0.0038068785   0.886291      -0.12957737   
    627000   1.0535379      0.0037702565   0.91414262    -0.12768934   
    628000   1.0321995      0.0044486453   0.89949064    -0.12124002   
    629000   0.96180669     0.0040391955   0.83748056    -0.11363939   
    630000   1.0451545      0.0043738617   0.91384832    -0.11969339   
    631000   0.97141946     0.0034655157   0.83137657    -0.12924934   
    632000   1.015298       0.0040026903   0.86469892    -0.13931802   
    633000   1.0249501      0.0042295914   0.90158662    -0.11197514   
    634000   1.0262121      0.0040355751   0.90032086    -0.11448888   
    635000   0.99297646     0.0038415922   0.87217293    -0.10977046   
    636000   0.97722551     0.0038278703   0.83060665    -0.1357608    
    637000   1.0353668      0.0042973422   0.88465584    -0.13920691   
    638000   1.0337428      0.004243958    0.88166172    -0.14059503   
    639000   1.030223       0.0033565563   0.86496322    -0.15381289   
    640000   0.95323958     0.0038345017   0.79715005    -0.14549798   
    641000   1.0455186      0.0029831594   0.90399612    -0.12990556   
    642000   0.90409456     0.0032607879   0.73972139    -0.15432768   
    643000   1.0043797      0.0035504782   0.82720948    -0.1660104    
    644000   0.98210127     0.003798039    0.8119165     -0.15927253   
    645000   0.9698473      0.0032714625   0.79794068    -0.16113055   
    646000   0.98284019     0.0031695334   0.83670404    -0.1352157    
    647000   1.0067839      0.0037542716   0.84711152    -0.14848593   
    648000   1.0304132      0.0047453757   0.86702267    -0.15194147   
    649000   0.99823962     0.0042528099   0.84709043    -0.14005764   
    650000   0.99536355     0.0042294508   0.86635164    -0.11795232   
    651000   0.93710569     0.004126408    0.78124559    -0.14544782   
    652000   1.0750311      0.0038235444   0.91788997    -0.14519634   
    653000   1.0409801      0.0042327254   0.88750625    -0.14190745   
    654000   1.044618       0.0036832545   0.89607648    -0.13693469   
    655000   1.0038483      0.0033350052   0.87417527    -0.11851914   
    656000   0.99431667     0.0036645995   0.86283645    -0.12043226   
    657000   1.0027001      0.0039138156   0.86439801    -0.12716098   
    658000   0.97584933     0.0049282769   0.84037758    -0.12462899   
    659000   1.1210789      0.0039310323   0.98063993    -0.12798249   
    660000   1.0636777      0.0048584414   0.93132994    -0.12052914   
    661000   1.0834427      0.0054824636   0.94891047    -0.12249398   
    662000   1.036828       0.0043121143   0.89261822    -0.13268948   
    663000   1.0742101      0.0041078811   0.92905959    -0.13321481   
    664000   0.88518976     0.00246703     0.76710553    -0.10824879   
    665000   0.98615305     0.0037883368   0.83888392    -0.13631188   
    666000   0.98645726     0.0044262491   0.85688154    -0.11861508   
    667000   0.97713013     0.0043184233   0.85597461    -0.11029851   
    668000   0.97978876     0.0034671597   0.846709      -0.12219322   
    669000   1.0936767      0.0046403731   0.97751144    -0.10401332   
    670000   1.0477671      0.0041250547   0.9138945     -0.12223073   
    671000   1.0136176      0.0041167607   0.88318522    -0.11916993   
    672000   0.96808015     0.0037254084   0.84644459    -0.11087912   
    673000   0.9239972      0.00455759     0.79372708    -0.12000348   
    674000   1.0224721      0.0041042715   0.88315659    -0.12795474   
    675000   1.0703141      0.0045766272   0.92594358    -0.13247815   
    676000   1.0452079      0.004108227    0.8932981     -0.14029642   
    677000   0.9430478      0.0030369905   0.80213813    -0.13043137   
    678000   1.0024519      0.0037133099   0.86363533    -0.1276782    
    679000   0.97873704     0.0044035669   0.84369525    -0.12416693   
    680000   0.97752395     0.0033094683   0.85204273    -0.11461984   
    681000   1.0020577      0.0044177576   0.87886199    -0.1120617    
    682000   0.95380128     0.0034251073   0.82315018    -0.12005331   
    683000   1.0439196      0.0037589679   0.92137622    -0.11094426   
    684000   0.94042142     0.0040069655   0.81924178    -0.11073051   
    685000   1.0311436      0.0032338858   0.89483616    -0.12485031   
    686000   1.0604764      0.0043209953   0.92662805    -0.12206527   
    687000   1.0224018      0.0042735374   0.90556536    -0.10547639   
    688000   1.0212734      0.0045130345   0.9027024     -0.10722356   
    689000   1.0625113      0.0048377853   0.9447445     -0.10596117   
    690000   1.0337805      0.0028483305   0.94493646    -0.077357548  
    691000   0.95957516     0.0034160251   0.86375877    -0.08515445   
    692000   0.95749001     0.0029571075   0.86071698    -0.08613425   
    693000   0.91395552     0.0036444643   0.82879654    -0.075003922  
    694000   0.99583048     0.0039119724   0.89355803    -0.091207666  
    695000   0.97777697     0.0037319279   0.86795208    -0.098960709  
    696000   1.0651006      0.0038100725   0.95273174    -0.10053438   
    697000   1.0388464      0.003551664    0.93226004    -0.095043675  
    698000   0.96058211     0.003535993    0.86825427    -0.081654705  
    699000   1.1104748      0.0040473747   1.0058363     -0.092299907  
    700000   0.98911728     0.004752919    0.89211664    -0.086010452  
    701000   1.0197253      0.0045498392   0.93345243    -0.074942591  
    702000   1.0101518      0.0035617682   0.93322056    -0.065707289  
    703000   1.0236323      0.0028889637   0.94120573    -0.071052849  
    704000   1.0099433      0.0047645754   0.9196245     -0.079097213  
    705000   0.99323454     0.0035926322   0.90090548    -0.081293128  
    706000   0.99802721     0.0042327772   0.91352628    -0.07341174   
    707000   1.0530549      0.0052230671   0.96164386    -0.079710393  
    708000   1.0049253      0.0050426444   0.9107838     -0.082975647  
    709000   1.0706046      0.0047183653   0.98415869    -0.074550321  
    710000   0.99594629     0.0043367257   0.88014446    -0.10473576   
    711000   0.94694526     0.0042710334   0.84240332    -0.094020328  
    712000   0.96167556     0.0036488995   0.83077042    -0.12021986   
    713000   1.0457363      0.0042571029   0.91974886    -0.11436814   
    714000   1.0133233      0.003768515    0.90321747    -0.098846654  
    715000   0.99412431     0.0045541362   0.86826807    -0.11481042   
    716000   0.98851276     0.0040628304   0.86939277    -0.10813651   
    717000   0.93499513     0.0045976405   0.81124877    -0.11335753   
    718000   0.95432861     0.0033467127   0.83307643    -0.11064853   
    719000   0.96691483     0.003592004    0.86986173    -0.0863096    
    720000   1.0500217      0.0050846077   0.95798706    -0.080367732  
    721000   1.1136061      0.0047202283   1.0093795     -0.091853141  
    722000   0.91002374     0.0039517409   0.81378412    -0.086128246  
    723000   1.033341       0.0037779008   0.92755018    -0.094309279  
    724000   0.93755457     0.0044186012   0.85304297    -0.074094332  
    725000   0.98876954     0.0045878502   0.87232469    -0.10545852   
    726000   0.98791368     0.0026511912   0.89803776    -0.078899105  
    727000   1.0178503      0.0039310341   0.89438928    -0.11215161   
    728000   1.021992       0.0041161327   0.89499417    -0.11564238   
    729000   1.0425951      0.0042282028   0.91817025    -0.11284044   
    730000   1.0484632      0.0034074253   0.91235295    -0.12446062   
    731000   1.0181155      0.0042002449   0.89372064    -0.1130825    
    732000   0.89343224     0.0041986949   0.7681006     -0.11540462   
    733000   1.0155594      0.0046031725   0.88836771    -0.11590765   
    734000   0.93708255     0.0036743581   0.80948531    -0.11718521   
    735000   1.0246446      0.0033530572   0.89622383    -0.11703581   
    736000   1.0850824      0.0044334141   0.94085305    -0.13217287   
    737000   1.0086315      0.0044470927   0.89680756    -0.1006169    
    738000   0.92939212     0.0034293122   0.7803869     -0.13867864   
    739000   1.0431616      0.0032912302   0.89386195    -0.13770892   
    740000   0.97865962     0.0033364031   0.82443688    -0.14334875   
    741000   0.99478025     0.0034414175   0.85055818    -0.13316896   
    742000   0.99306053     0.004112203    0.84330127    -0.13872526   
    743000   0.97873687     0.0036792142   0.82547635    -0.14238567   
    744000   0.90473585     0.0032497184   0.77238596    -0.12229727   
    745000   0.99124625     0.0040583943   0.83385426    -0.14637814   
    746000   1.0349698      0.0035732566   0.88675947    -0.13671068   
    747000   0.94941495     0.0043224254   0.81061848    -0.12824742   
    748000   0.87061731     0.0033564933   0.73202543    -0.12891835   
    749000   1.0271431      0.0046561652   0.86190728    -0.15382307   
    750000   1.0216339      0.0048170946   0.85486551    -0.15541688   
    751000   0.98704125     0.0042182604   0.82625565    -0.14981847   
    752000   1.0642441      0.0039305381   0.90403403    -0.14838519   
    753000   1.0605175      0.0047617312   0.89180522    -0.15692879   
    754000   0.97669932     0.0037743303   0.82311193    -0.14273518   
    755000   0.97607383     0.003752001    0.82422374    -0.14100483   
    756000   1.0041174      0.0040256878   0.84642159    -0.14653898   
    757000   1.0777733      0.0036427391   0.90741665    -0.15838142   
    758000   0.95913679     0.0035520648   0.80641192    -0.14206779   
    759000   0.96974302     0.0025882868   0.81717969    -0.1417884    
    760000   1.0222525      0.0039677138   0.87869118    -0.13220293   
    761000   1.0336826      0.0038403823   0.91365004    -0.10854719   
    762000   0.99380821     0.0041856391   0.8669566     -0.11580929   
    763000   1.0416098      0.0037650015   0.90893947    -0.12109693   
    764000   0.9299314      0.0041986951   0.76771423    -0.15188459   
    765000   0.97533694     0.0037996014   0.81701178    -0.14748808   
    766000   1.036263       0.0030552377   0.87470037    -0.15004858   
    767000   0.93899565     0.003683862    0.80392294    -0.12463942   
    768000   1.0507821      0.0034888455   0.8783592     -0.16074754   
    769000   1.0505495      0.0037007173   0.88661985    -0.15225687   
    770000   0.89380993     0.0028000933   0.71962299    -0.16425572   
    771000   1.0026492      0.0037394141   0.83081452    -0.16069412   
    772000   0.98932766     0.0049548784   0.8489723     -0.12936282   
    773000   1.0376785      0.0034676184   0.90615421    -0.11999454   
    774000   1.0362718      0.0043649991   0.87026258    -0.15449504   
    775000   1.1316052      0.0043630153   0.97382567    -0.1452061    
    776000   0.96297404     0.0028587694   0.83332377    -0.11895055   
    777000   0.95565616     0.0041297777   0.78942352    -0.15561423   
    778000   0.99738938     0.0037073025   0.84137681    -0.14493047   
    779000   0.97973573     0.0035016791   0.83606014    -0.13278964   
    780000   0.99003788     0.0036527661   0.88012315    -0.09891431   
    781000   0.9804283      0.0037838231   0.84679483    -0.12273982   
    782000   1.0948944      0.0047192215   0.94396398    -0.13876495   
    783000   0.93877433     0.0039102403   0.79198416    -0.13635935   
    784000   0.95510605     0.0031079374   0.82739878    -0.11709498   
    785000   0.9930325      0.0045254076   0.86196115    -0.12003765   
    786000   0.96915063     0.0050522448   0.8550511     -0.10333118   
    787000   0.98700908     0.004777364    0.88195028    -0.094092033  
    788000   1.0534368      0.003484186    0.92591951    -0.11581248   
    789000   1.0383965      0.004704215    0.91322004    -0.11363875   
    790000   1.1540249      0.0042958265   1.0285174     -0.11268495   
    791000   1.0273766      0.0039175154   0.89919335    -0.11676798   
    792000   1.0231153      0.0033403073   0.89722667    -0.11452068   
    793000   0.96308552     0.0042833553   0.8593196     -0.09306497   
    794000   0.98306186     0.0048996561   0.87645765    -0.095681304  
    795000   0.98584263     0.003592604    0.86695133    -0.10793749   
    796000   1.0562677      0.0042141116   0.93608009    -0.10845129   
    797000   0.97831917     0.004138106    0.86480171    -0.10264725   
    798000   1.0866859      0.003045542    0.97507367    -0.099537892  
    799000   0.99846152     0.0034229155   0.89119165    -0.096175853  
    800000   1.0024095      0.0047780405   0.88548072    -0.10579093   
    801000   0.99094144     0.0033947601   0.87113848    -0.10879251   
    802000   1.0345651      0.0037941969   0.93443684    -0.088633052  
    803000   0.92563182     0.0040524638   0.82898649    -0.086360529  
    804000   0.99211165     0.0036607765   0.87475275    -0.10633543   
    805000   1.0853661      0.0041586352   0.98143922    -0.091867302  
    806000   1.0292107      0.0042294625   0.92590746    -0.091867537  
    807000   1.0528627      0.0037801603   0.96492562    -0.076238598  
    808000   1.0895162      0.0041807337   0.97242485    -0.10498561   
    809000   1.0910391      0.0047366052   0.9978319     -0.081084567  
    810000   1.0128053      0.0035376658   0.90841196    -0.093139936  
    811000   0.97034927     0.0044289666   0.86885338    -0.090714232  
    812000   0.98934585     0.0028293289   0.90030982    -0.078043293  
    813000   1.0370101      0.0040287219   0.95327413    -0.072213644  
    814000   0.95862811     0.00413684     0.88189316    -0.066083519  
    815000   1.0788692      0.0042426316   0.98488724    -0.081994474  
    816000   1.081327       0.0046591048   0.99475136    -0.07456087   
    817000   0.86304066     0.0034519441   0.74902176    -0.10442956   
    818000   0.93254857     0.0033300637   0.81663355    -0.10555337   
    819000   1.0306222      0.0045705712   0.91157998    -0.10759083   
    820000   1.0381757      0.0050198606   0.95497075    -0.071669693  
    821000   0.97263467     0.0048687718   0.85184625    -0.10998136   
    822000   0.99712856     0.0044382288   0.8564565     -0.12959285   
    823000   1.0522662      0.0042249941   0.91611685    -0.12445753   
    824000   0.90859454     0.003192142    0.74410917    -0.15438988   
    825000   1.0487447      0.003881367    0.89072489    -0.14636706   
    826000   1.0305182      0.004380155    0.88505698    -0.13401103   
    827000   0.90174042     0.0037566669   0.74089213    -0.15082895   
    828000   1.0222256      0.004611263    0.85547859    -0.15538891   
    829000   1.0187446      0.0039453601   0.86975631    -0.13766887   
    830000   0.97845069     0.0042593184   0.80266292    -0.1649161    
    831000   0.90822111     0.0025694617   0.73447407    -0.1636557    
    832000   0.96944594     0.003857439    0.79750038    -0.16117394   
    833000   1.0553911      0.0039273682   0.90077153    -0.14289303   
    834000   1.0623765      0.00398625     0.90244935    -0.14812299   
    835000   0.93187484     0.0043988689   0.78556145    -0.13595922   
    836000   0.97983079     0.0037827139   0.8501399     -0.11880389   
    837000   1.0073859      0.0048418835   0.87180706    -0.12438562   
    838000   0.99861854     0.0052394606   0.86795009    -0.11957269   
    839000   1.0362396      0.0045964329   0.90569918    -0.11902661   
    840000   1.0247125      0.0041491758   0.87173825    -0.14158859   
    841000   0.99693957     0.0042008014   0.87525202    -0.11061044   
    842000   1.0441743      0.004073833    0.90312572    -0.12944659   
    843000   1.0799741      0.0049404571   0.93631644    -0.13165798   
    844000   0.97147482     0.0036617523   0.85051101    -0.11016965   
    845000   0.94582098     0.0030457136   0.81707183    -0.11824002   
    846000   1.0205661      0.003693753    0.85150076    -0.15772573   
    847000   0.97539754     0.0040671764   0.80472446    -0.15983533   
    848000   0.99635373     0.0041628419   0.85659391    -0.12868922   
    849000   1.0036934      0.0034982516   0.8237276     -0.16881364   
    850000   1.0295389      0.0039166222   0.84488139    -0.17321814   
    851000   0.97495855     0.0033086976   0.78749872    -0.17662695   
    852000   0.92706295     0.0031767678   0.73003376    -0.18672849   
    853000   0.96619656     0.003739977    0.7957689     -0.15969214   
    854000   0.98571419     0.0042321778   0.83354699    -0.14121482   
    855000   0.84430725     0.0040732266   0.73145982    -0.10346624   
    856000   1.0157284      0.0041646708   0.8650656     -0.13937689   
    857000   1.002207       0.0033216387   0.85619544    -0.13487593   
    858000   1.0131849      0.0040157737   0.84334206    -0.15858522   
    859000   1.0500141      0.0043719065   0.88210966    -0.1562376    
    860000   0.9664168      0.0036250309   0.79582102    -0.15985782   
    861000   1.0112547      0.0044422098   0.83475277    -0.16526575   
    862000   1.0187511      0.003837179    0.86205553    -0.14537607   
    863000   1.1060079      0.0040161609   0.92089547    -0.17282349   
    864000   1.0007447      0.0046037769   0.85563005    -0.13399523   
    865000   1.0132513      0.003959892    0.85287904    -0.14911392   
    866000   1.018857       0.0027918991   0.85029776    -0.15723862   
    867000   0.98697566     0.0038434278   0.83558896    -0.1404203    
    868000   0.98548788     0.0047143265   0.82830696    -0.14623106   
    869000   1.0020976      0.0037498164   0.84799985    -0.1429633    
    870000   1.0041248      0.0035269201   0.87098304    -0.12198485   
    871000   1.0679211      0.0033948923   0.92486789    -0.1311874    
    872000   0.94458939     0.0035316305   0.80923387    -0.12486008   
    873000   1.0197815      0.0044387828   0.88108088    -0.12736968   
    874000   0.98775289     0.0037689598   0.84673325    -0.13004461   
    875000   0.96093516     0.0039949637   0.82907906    -0.12117905   
    876000   0.9740309      0.0046048821   0.82767856    -0.13552977   
    877000   1.0358507      0.0043863698   0.91122127    -0.11311997   
    878000   1.0031952      0.0032814737   0.89239691    -0.099651637  
    879000   0.98716835     0.0040007533   0.8770487     -0.099151105  
    880000   0.96876069     0.0038718928   0.83518936    -0.12280732   
    881000   0.96566853     0.0039392553   0.84137222    -0.11356666   
    882000   0.99538521     0.0044248521   0.8742265     -0.11009887   
    883000   0.99203875     0.0045040033   0.85171826    -0.12929784   
    884000   1.0409717      0.0033561846   0.91308873    -0.11631659   
    885000   1.0590891      0.0039009924   0.93947241    -0.107849     
    886000   0.98642334     0.0036836707   0.87004971    -0.10541337   
    887000   1.092234       0.0043002962   0.99395008    -0.086148032  
    888000   0.96000151     0.0037170262   0.85017306    -0.099161768  
    889000   1.087964       0.0042697737   0.99191564    -0.083959872  
    890000   0.92281039     0.0031636796   0.80077499    -0.11178196   
    891000   0.95696427     0.003742376    0.84407204    -0.10225929   
    892000   1.0286982      0.0038275613   0.92629933    -0.090968851  
    893000   0.97666104     0.0044473745   0.86065191    -0.10515734   
    894000   0.96451647     0.0038377423   0.87117703    -0.082622586  
    895000   0.87517939     0.0029712979   0.77943001    -0.086025166  
    896000   1.0765894      0.0042930466   0.98595685    -0.078670405  
    897000   0.98097955     0.0040017292   0.89205481    -0.078024964  
    898000   1.0153671      0.0043928395   0.92805034    -0.076034905  
    899000   0.84408556     0.0034694515   0.74583271    -0.08887412   
    900000   0.99730406     0.0043093036   0.90861999    -0.07760291   
    901000   0.99470011     0.0038822664   0.90071414    -0.082933747  
    902000   0.92622221     0.0039070261   0.84337802    -0.072552827  
    903000   1.0149081      0.0040391903   0.90015383    -0.10347754   
    904000   1.0014295      0.0049771759   0.89521385    -0.095088662  
    905000   0.92976892     0.0040787004   0.81351512    -0.10592304   
    906000   1.0243394      0.0038656854   0.92246581    -0.09049199   
    907000   1.019789       0.0045994173   0.92855302    -0.079904956  
    908000   1.0776456      0.004079172    0.9683248     -0.097346994  
    909000   0.97641813     0.0043851493   0.84886932    -0.11669972   
    910000   1.0300113      0.0045338771   0.91611808    -0.10244868   
    911000   1.0772278      0.0034422747   0.92911511    -0.13614348   
    912000   1.1443027      0.0046045007   1.0264782     -0.10510998   
    913000   1.0622605      0.0036012359   0.93897212    -0.11148549   
    914000   1.0837965      0.0055022167   0.97917657    -0.092577723  
    915000   1.040903       0.0032148194   0.94522016    -0.084117253  
    916000   1.0331621      0.0028294204   0.93272032    -0.088962194  
    917000   1.0222528      0.004004779    0.92613582    -0.084758599  
    918000   0.90921391     0.0030544323   0.81227805    -0.086833483  
    919000   0.99351306     0.0044181376   0.90477473    -0.0776993    
    920000   0.98317318     0.0034710308   0.88872204    -0.083526985  
    921000   1.0255749      0.003611751    0.93596591    -0.078213687  
    922000   0.95487745     0.0045955813   0.87049863    -0.073769078  
    923000   0.95366231     0.0036441361   0.86257229    -0.080493769  
    924000   0.94931757     0.0040790968   0.86532294    -0.073446662  
    925000   0.93206339     0.0040696468   0.86566065    -0.056046479  
    926000   0.95209186     0.003298157    0.87144431    -0.070068752  
    927000   0.98362206     0.003189978    0.91596496    -0.056727967  
    928000   0.9890556      0.0039976062   0.91624152    -0.06182458   
    929000   1.0636378      0.004023672    0.99829805    -0.053521595  
    930000   0.96853626     0.0040282579   0.9031267     -0.054648041  
    931000   0.97492422     0.0044058806   0.89924724    -0.064844493  
    932000   1.10858        0.0051836968   1.0397911     -0.056471357  
    933000   1.0650682      0.0041409839   0.98624333    -0.066990787  
    934000   1.0001622      0.0038005561   0.94432447    -0.04472481   
    935000   0.99605298     0.0043556849   0.91191792    -0.073067804  
    936000   1.0562016      0.0043789684   0.97286192    -0.071604069  
    937000   1.0508043      0.0038762215   0.97929784    -0.059830847  
    938000   1.0413114      0.0036993502   0.9640056     -0.06573563   
    939000   1.0182758      0.0037509931   0.94513868    -0.06182297   
    940000   0.96305406     0.0037694277   0.89182576    -0.060527706  
    941000   0.98486874     0.0030258352   0.91836265    -0.055563104  
    942000   1.0618918      0.0045825517   0.98553501    -0.064557986  
    943000   0.89706303     0.00415825     0.80707591    -0.08001975   
    944000   1.0159758      0.0041648048   0.9332801     -0.071407073  
    945000   1.0157679      0.0041293496   0.94446865    -0.060012985  
    946000   1.0957516      0.0042784158   1.0254895     -0.0580871    
    947000   0.95447255     0.0047590207   0.87373571    -0.070131588  
    948000   1.0462762      0.00390893     0.95915104    -0.075499837  
    949000   1.0436041      0.0039572776   0.95220076    -0.079807721  
    950000   1.0704997      0.0036872157   0.98442606    -0.074179224  
    951000   0.94828202     0.0036497984   0.89912049    -0.03862506   
    952000   1.0492768      0.0049185628   0.96731688    -0.070301317  
    953000   1.0140647      0.0044725223   0.9419812     -0.060816073  
    954000   1.0425064      0.004932626    0.97098566    -0.059937301  
    955000   1.0264645      0.0040229792   0.95180577    -0.063253617  
    956000   0.95088801     0.0041569969   0.86741873    -0.072903857  
    957000   0.98151061     0.0035800651   0.8894536     -0.08115133   
    958000   0.94819115     0.0036219174   0.87191355    -0.065742151  
    959000   1.0232449      0.0051595007   0.92543171    -0.086443774  
    960000   1.0137498      0.0040216917   0.92101963    -0.081466295  
    961000   1.0275759      0.0036254871   0.9330906     -0.083067775  
    962000   1.0145696      0.0045553976   0.93423462    -0.069062018  
    963000   1.0223379      0.0042912597   0.92777293    -0.083205634  
    964000   1.0382529      0.0038669262   0.95497087    -0.071745879  
    965000   1.0272897      0.0047273941   0.93974499    -0.076130357  
    966000   1.0572817      0.0054092477   0.96386708    -0.081667016  
    967000   1.0179458      0.0042599397   0.92020752    -0.086427748  
    968000   0.97321137     0.0051695698   0.88964713    -0.072750787  
    969000   1.0446378      0.0041525906   0.95419748    -0.078833261  
    970000   1.1345515      0.0039842347   1.035496      -0.086449415  
    971000   1.0485662      0.0041035343   0.94663824    -0.090277264  
    972000   0.95940214     0.0044402032   0.85969346    -0.089048652  
    973000   1.1008996      0.0054274386   1.017803      -0.070864407  
    974000   1.0253124      0.0053272928   0.93466496    -0.079255121  
    975000   0.98931472     0.0036370277   0.8939578     -0.084364528  
    976000   1.0659971      0.004938011    0.97770485    -0.076447877  
    977000   0.95381717     0.003671639    0.87593576    -0.067283438  
    978000   0.96891909     0.0039328823   0.8832378     -0.074915521  
    979000   0.95642053     0.0041549906   0.86738246    -0.078411182  
    980000   0.98512453     0.0044212973   0.90117692    -0.073001779  
    981000   0.87917885     0.0036150998   0.78804168    -0.081368517  
    982000   1.0663568      0.0038290182   0.9849743     -0.069534045  
    983000   0.99302006     0.0048291851   0.91362735    -0.068359156  
    984000   1.0016206      0.0031399878   0.92634468    -0.06414678   
    985000   1.0412219      0.0053110539   0.95455058    -0.075102162  
    986000   1.0650631      0.0044807362   0.97569971    -0.077529323  
    987000   1.0092241      0.0050168171   0.92819289    -0.06981759   
    988000   0.99793604     0.0042604512   0.8783728     -0.10847506   
    989000   1.0034107      0.0031268527   0.88767158    -0.10459012   
    990000   1.0273919      0.0037866236   0.92236642    -0.093610032  
    991000   0.88354475     0.002419471    0.76269683    -0.11103076   
    992000   0.97374282     0.0040929704   0.85858941    -0.10433404   
    993000   1.044041       0.0038332411   0.92068459    -0.11175597   
    994000   1.0034299      0.003770577    0.8810886     -0.11119207   
    995000   1.0302429      0.0057881868   0.90633851    -0.11245725   
    996000   1.0150091      0.0042651511   0.88140953    -0.12232167   
    997000   1.0316772      0.0041117158   0.90621901    -0.11399508   
    998000   1.0398982      0.0035540318   0.89725969    -0.13108405   
    999000   1.0213353      0.0049507987   0.89676415    -0.11322299   
   1000000   1.029739       0.0039883669   0.89418599    -0.12411142   
Loop time of 17.2201 on 1 procs for 1000000 steps with 405 atoms

Performance: 50173955.007 tau/day, 58071.707 timesteps/s
99.2% CPU use with 1 MPI tasks x no OpenMP threads

MPI task timing breakdown:
Section |  min time  |  avg time  |  max time  |%varavg| %total
---------------------------------------------------------------
Pair    | 1.0283     | 1.0283     | 1.0283     |   0.0 |  5.97
Bond    | 0.042205   | 0.042205   | 0.042205   |   0.0 |  0.25
Neigh   | 3.2967     | 3.2967     | 3.2967     |   0.0 | 19.14
Comm    | 0.84949    | 0.84949    | 0.84949    |   0.0 |  4.93
Output  | 0.32859    | 0.32859    | 0.32859    |   0.0 |  1.91
Modify  | 10.346     | 10.346     | 10.346     |   0.0 | 60.08
Other   |            | 1.329      |            |       |  7.72

Nlocal:            405 ave         405 max         405 min
Histogram: 1 0 0 0 0 0 0 0 0 0
Nghost:             54 ave          54 max          54 min
Histogram: 1 0 0 0 0 0 0 0 0 0
Neighs:             27 ave          27 max          27 min
Histogram: 1 0 0 0 0 0 0 0 0 0

Total # of neighbors = 27
Ave neighs/atom = 0.066666667
Ave special neighs/atom = 0
Neighbor list builds = 212587
Dangerous builds = 0
Total wall time: 0:00:17
