fix fLANG all langevin 1.0 1.0 1.0 100
neigh_modify exclude molecule/intra all
fix rigidNVE linked_vesicle rigid/nve molecule
  1 rigid bodies with 5 atoms
fix NVE synapsin nve 1.0 1.0 1.0

    ##======================================##
    ## Output
    ##======================================##

thermo 1000
thermo_style custom step temp press etotal epair
thermo_modify flush yes
timestep 0.01

    ##======================================##
    ## Equilibration before output
    ##======================================##


    ##======================================##
    ## Run with output
    ##======================================##

fix enforce_2d all enforce2d
dump 2 all custom 1000 Results_eps_attr1_eps_rep1_eps_rep_weak0.001_range2_attr_with_repFalse_n_synapsin400_n_vesicles1/Movie_2d_eps_attr1_eps_rep1_eps_rep_weak0.001_range2_attr_with_repFalse_n_synapsin400_n_vesicles1.xyz id type mol x y z
run 1000000
Generated 0 of 3 mixed pair_coeff terms from geometric mixing rule
Neighbor list info ...
  update every 1 steps, delay 1 steps, check yes
  max neighbors/atom: 2000, page size: 100000
  master list distance cutoff = 11.52462
  ghost atom cutoff = 11.52462
  binsize = 5.7623102, bins = 55 55 1
  1 neighbor lists, perpetual/occasional/extra = 1 0 0
  (1) pair cosine/squared, perpetual
      attributes: half, newton on
      pair build: half/bin/newton
      stencil: half/bin/2d
      bin: standard
Per MPI rank memory allocation (min/avg/max) = 8.526 | 8.526 | 8.526 Mbytes
   Step          Temp          Press          TotEng         E_pair    
         0   0.99441908    -0.013071225    0.98336998     0            
      1000   1.052877       0.0040548885   1.0411809      2.5044906e-06
      2000   0.97902644     0.0030040622   0.96849889     0.00035052091
      3000   1.0601207      0.0035583022   1.0483416      0            
      4000   1.0466423      0.0043625821   1.0350129      0            
      5000   1.0005436      0.0035020426   0.98945454     2.8061539e-05
      6000   0.97028404     0.0030784247   0.95950311     0            
      7000   0.9429228      0.0035389451   0.9342467      0.001800821  
      8000   1.070792       0.0042930144   1.0588943      0            
      9000   1.099818       0.0040939823   1.0875978      0            
     10000   1.0642281      0.0047822672   1.0522943     -0.00010900216
     11000   0.96178959     0.0044415766   0.95110304     0            
     12000   0.92767019     0.0051517252   0.91735861    -4.1313452e-06
     13000   0.95778136     0.0033326562   0.94690119    -0.00023815806
     14000   1.0603061      0.0044177532   1.048525       0            
     15000   0.96756167     0.0045162568   0.95673436    -7.661573e-05 
     16000   0.96452468     0.0038345874   0.95383622     2.8488409e-05
     17000   1.0117968      0.0052641831   1.0005546      0            
     18000   1.082723       0.00461878     1.0708098      0.00011702663
     19000   1.0025392      0.003971064    0.99139985     0            
     20000   0.99634125     0.0038771094   0.98317333    -0.0020974613 
     21000   0.94575856     0.0043541305   0.93396481    -0.0012853287 
     22000   0.91491106     0.0034707112   0.90249821    -0.0022471665 
     23000   0.90288237     0.0029009817   0.89285034     0            
     24000   0.94682128     0.0046298052   0.93575994    -0.00054109961
     25000   0.96121802     0.0040605572   0.95053782     0            
     26000   0.96541912     0.0033594855   0.95372762    -0.00096462371
     27000   1.008182       0.0057860474   0.99724062     0.00026069477
     28000   1.0261062      0.0050601243   1.014705       0            
     29000   1.0203651      0.0050841318   1.006738      -0.0022896556 
     30000   0.96934314     0.0033081773   0.95692731    -0.0016453456 
     31000   0.98290961     0.0039320922   0.97198839     0            
     32000   1.0558334      0.0048917896   1.0416592     -0.0024426554 
     33000   1.024945       0.0040129634   1.0147707      0.0012140396 
     34000   0.95245868     0.0029999011   0.93940692    -0.0024688901 
     35000   1.0597769      0.0039942331   1.0480016      0            
     36000   0.98422799     0.003573076    0.97329212     0            
     37000   1.0173578      0.0046367906   1.0044312     -0.0016226429 
     38000   0.99593067     0.0040821894   0.98399304    -0.00087173479
     39000   0.90570608     0.0040674144   0.89564268     0            
     40000   1.0311808      0.0046322023   1.0199964      0.00027313651
     41000   0.94174476     0.0048451507   0.93128092     0            
     42000   1.0414065      0.0036907701   1.0298353      0            
     43000   0.99610971     0.0044400129   0.98504182     0            
     44000   1.0436256      0.003452381    1.0320298      0            
     45000   1.0336215      0.0047500605   1.0204392     -0.0016975874 
     46000   1.0436817      0.0049775421   1.0320881      2.8630656e-06
     47000   0.9917834      0.0041025074   0.98076358     0            
     48000   1.0548883      0.0043638058   1.0458593      0.002691985  
     49000   1.0093483      0.0039791754   0.99813328     0            
     50000   0.96873425     0.0037821124   0.95797054     0            
     51000   1.01116        0.0035065076   0.99992489     0            
     52000   1.1015389      0.0043735554   1.0893321      3.2512126e-05
     53000   1.0428035      0.0039738144   1.0312168      0            
     54000   1.0499445      0.0039908577   1.0382784      0            
     55000   0.99028311     0.0036813168   0.97927997     0            
     56000   1.0441442      0.0035743862   1.0325426      0            
     57000   0.99709558     0.0048351056   0.98601674     0            
     58000   0.9795968      0.004059336    0.96871239     0            
     59000   1.016636       0.0036754737   1.004311      -0.0010290221 
     60000   1.0103176      0.0052211055   0.99920318     0.00011136291
     61000   1.0548454      0.0043353756   1.0431249      0            
     62000   0.98082993     0.0037020181   0.96867555    -0.0012562713 
     63000   1.0827842      0.0042804745   1.0682842     -0.0024690096 
     64000   0.99348091     0.0046828774   0.98069906    -0.0017431724 
     65000   1.0410452      0.0052302791   1.0300804      0.00060246429
     66000   1.0437882      0.0039778745   1.0298584     -0.0023321265 
     67000   0.99575128     0.0048335664   0.98564076     0.00095338774
     68000   0.98483062     0.004454227    0.97160416    -0.0022838913 
     69000   0.99832972     0.004463971    0.98767481     0.00043764003
     70000   1.0452088      0.004354305    1.0315063     -0.0020890723 
     71000   0.95581538     0.0036478327   0.94519521     0            
     72000   1.0563359      0.0053550212   1.0445988      0            
     73000   0.9665127      0.0033458284   0.95577367     0            
     74000   0.92642891     0.0038741402   0.91613525     0            
     75000   1.0226067      0.0045106904   1.0111916     -5.2887021e-05
     76000   1.0587232      0.004118465    1.0440026     -0.0029569825 
     77000   1.037177       0.0035996289   1.0243071     -0.0013456574 
     78000   0.99526402     0.0044370998   0.98420553     0            
     79000   1.0235567      0.0041023878   1.0121899      6.0569418e-06
     80000   1.0865443      0.0063139949   1.0744716      0            
     81000   0.97460474     0.0036323548   0.9637758      0            
     82000   1.015579       0.0035571282   1.0042948      0            
     83000   0.99280822     0.00454203     0.98163957    -0.00013744075
     84000   0.93241591     0.0034594598   0.92029976    -0.001755972  
     85000   0.94481269     0.0032881674   0.93431477     0            
     86000   1.0037734      0.0045376708   0.99196701    -0.00065338404
     87000   0.95957663     0.0037072111   0.94652002    -0.002394656  
     88000   1.0122655      0.0040469937   0.99886203    -0.0021561165 
     89000   0.97767226     0.0039618493   0.96619874    -0.00061049152
     90000   0.98591707     0.0045764086   0.97381826    -0.0011441703 
     91000   0.99151457     0.0030347854   0.97543269    -0.0050650539 
     92000   1.0094962      0.0033885294   0.99499791    -0.0032816805 
     93000   1.0526022      0.0040935822   1.0383212     -0.0025854378 
     94000   1.0169798      0.0048908572   1.0049958     -0.00068421839
     95000   1.0096811      0.0043372524   0.99729511    -0.0011672805 
     96000   1.0484556      0.0044441797   1.0351526     -0.0016534234 
     97000   0.94762388     0.0041721032   0.93463175    -0.0024629763 
     98000   0.97931391     0.0044157558   0.96847573     4.3082475e-05
     99000   0.98348625     0.0042635265   0.97255863     0            
    100000   0.97537907     0.0036491544   0.96281771    -0.0017238212 
    101000   1.0972314      0.0042433299   1.0847867     -0.00025315716
    102000   0.9769131      0.0038663464   0.96391171    -0.0021468023 
    103000   1.0792493      0.0048489487   1.0649813     -0.0022762568 
    104000   0.96018        0.0035931841   0.94704705    -0.0024642786 
    105000   0.99225776     0.0036207113   0.9797836     -0.0014490738 
    106000   0.96182882     0.0031688469   0.95114183     0            
    107000   1.0129983      0.0043973245   1.0017427      0            
    108000   0.95871826     0.0028018471   0.94806584     0            
    109000   0.97603298     0.0030904684   0.96518817     0            
    110000   1.0529116      0.0040819863   1.0412126      0            
    111000   1.028542       0.0041486161   1.0171137      0            
    112000   1.0076247      0.0029191359   0.99763924     0.0012103388 
    113000   1.0198461      0.0039623519   1.0085145      0            
    114000   1.024397       0.0043852781   1.0130148      0            
    115000   1.1317031      0.0052542605   1.1191286      0            
    116000   1.0322062      0.0045528402   1.0207408      3.5641964e-06
    117000   1.0232174      0.004941076    1.0118483      0            
    118000   1.0747444      0.0041922827   1.0628028      0            
    119000   1.0483782      0.0044499123   1.0367296      0            
    120000   1.0306249      0.0046422731   1.0191735      0            
    121000   1.090582       0.0049264089   1.0784644      0            
    122000   0.98436423     0.003537125    0.97342685     0            
    123000   1.0437322      0.004413263    1.0321352      0            
    124000   0.96076436     0.0042044404   0.9500892      0            
    125000   0.97086559     0.0043486013   0.96426779     0.0041895937 
    126000   1.0081101      0.0041318112   0.99690883     0            
    127000   1.0093955      0.0041161772   0.99691697    -0.0012630066 
    128000   1.0587613      0.0047711902   1.0446291     -0.0023681638 
    129000   1.0192796      0.004701737    1.0079543      0            
    130000   0.9987063      0.0042059636   0.98760956     0            
    131000   1.0126688      0.0042258415   1.0014169      0            
    132000   0.94347157     0.0038717784   0.93298855     0            
    133000   1.0019444      0.0033862859   0.99081167     0            
    134000   1.0578129      0.0038058279   1.0460594      0            
    135000   1.0517727      0.0052321525   1.0402567      0.00017041863
    136000   0.90599188     0.0042641292   0.89592531     0            
    137000   0.97541485     0.0044120775   0.96288353    -0.0016933795 
    138000   0.97170211     0.0052562028   0.96091481     9.3891428e-06
    139000   0.96678243     0.0038735695   0.9560404      0            
    140000   0.9966256      0.0035474283   0.98566785     0.00011586968
    141000   0.98396722     0.0041406825   0.97300371    -3.0535881e-05
    142000   1.0497334      0.0049213393   1.0380697      0            
    143000   0.91117216     0.0036370644   0.90104802     0            
    144000   1.033518       0.0038506079   1.0220345      0            
    145000   0.90923514     0.0043818714   0.89913253     0            
    146000   0.95213667     0.0039965899   0.94155737     0            
    147000   1.0335546      0.0050783145   1.0208022     -0.0012684671 
    148000   1.0082458      0.0051711888   0.99704307     0            
    149000   0.90949242     0.0027025108   0.89939468     7.7282286e-06
    150000   0.99764563     0.003931597    0.9855341     -0.001026584  
    151000   0.96261377     0.0048534541   0.95191806     0            
    152000   1.059877       0.0051697115   1.0513543      0.0032537268 
    153000   1.0012176      0.0040748172   0.98810622    -0.0019867703 
    154000   1.027268       0.0053461958   1.015854       0            
    155000   1.1039058      0.0044078363   1.0916402      0            
    156000   1.0747853      0.0039926852   1.0628432      0            
    157000   0.96660034     0.00321847     0.95440852    -0.0014518184 
    158000   1.0446568      0.0039956685   1.0330495      0            
    159000   0.97781504     0.0033191547   0.96695043     0            
    160000   0.98934636     0.0044889267   0.97835362     0            
    161000   0.97205747     0.0045935129   0.9611781     -7.8728845e-05
    162000   1.0338998      0.0031788239   1.0195054     -0.0029066104 
    163000   1.0306115      0.0037838164   1.0174266     -0.0017336148 
    164000   1.0328176      0.0043336282   1.0199851     -0.0013567432 
    165000   1.0579543      0.0051028584   1.0443774     -0.0018218241 
    166000   0.92637388     0.00257253     0.91262028    -0.0034605587 
    167000   1.0027288      0.0046840637   0.98874966    -0.0028377074 
    168000   1.0867382      0.0038559845   1.0713164     -0.00334698   
    169000   1.0219703      0.0033350151   1.0108805      0.000265477  
    170000   0.98973055     0.0043616146   0.97734594    -0.0013875997 
    171000   1.0088884      0.0044347036   0.99767854     0            
    172000   1.056205       0.0049066825   1.0419833     -0.0024860047 
    173000   1.0204117      0.0044525549   1.0090768      2.9927595e-06
    174000   1.0697184      0.005522099    1.0587148      0.00088214877
    175000   0.9825272      0.0040884715   0.9661298     -0.005480432  
    176000   0.93423472     0.0048279307   0.92413653     0.00028219662
    177000   0.99104097     0.0040133186   0.97352831    -0.0065010985 
    178000   0.9677507      0.0040754587   0.95716378     0.00016586235
    179000   1.0086058      0.0040081042   0.9979841      0.00058502336
    180000   0.97003869     0.0039250352   0.95910003    -0.00016045192
    181000   0.97938703     0.0039925198   0.96513525    -0.0033697045 
    182000   0.98740205     0.0048459767   0.97468318    -0.0017477319 
    183000   1.0332034      0.0042199597   1.0217234      0            
    184000   1.0539645      0.0045412848   1.0400297     -0.0022240679 
    185000   1.0251016      0.0041035131   1.0129526     -0.00075902479
    186000   0.98818162     0.0040100441   0.97290899    -0.0042928307 
    187000   0.98416815     0.003981997    0.9712333     -0.001999647  
    188000   1.0494673      0.0047053155   1.0378066      0            
    189000   0.90720993     0.0026978598   0.89474668    -0.0023831382 
    190000   1.0512772      0.0045446407   1.0395964      0            
    191000   1.0278428      0.0046339362   1.0143661     -0.0020562474 
    192000   1.0525677      0.0043798464   1.040108      -0.00076450936
    193000   1.0001848      0.0036052294   0.98699539    -0.0020762325 
    194000   0.98547704     0.0045256807   0.97429366    -0.00023363877
    195000   1.0572476      0.0037953409   1.0430494     -0.0024510123 
    196000   1.033046       0.0037679621   1.0215762      8.4852932e-06
    197000   0.98890747     0.0038048059   0.97791961     0            
    198000   0.93328897     0.0035916303   0.92092099    -0.0019981015 
    199000   0.95608657     0.0040419994   0.94403832    -0.0014250624 
    200000   1.0032528      0.004556365    0.99210553     0            
    201000   1.0109138      0.0034365209   0.99968146     0            
    202000   1.0126217      0.0034901719   1.0013704      0            
    203000   0.9540572      0.0035645167   0.94345656     0            
    204000   0.97878427     0.0043700827   0.96801698     0.00010808506
    205000   0.96560087     0.0032343179   0.95487197     0            
    206000   0.96652402     0.0038668255   0.95578487     0            
    207000   1.0377981      0.0037985542   1.026267       0            
    208000   0.96275767     0.0027600481   0.95206036     0            
    209000   0.99597215     0.0037339313   0.98212557    -0.0027802221 
    210000   1.0127625      0.0041102911   0.99682752    -0.0046820765 
    211000   1.0584901      0.0038114058   1.0446079     -0.0021211862 
    212000   0.9907063      0.0041623545   0.97942372    -0.00027473235
    213000   0.97214173     0.0031967775   0.96134016     0            
    214000   1.0354361      0.0040597597   1.0239313      0            
    215000   0.99340855     0.0046987998   0.98237068     0            
    216000   0.99337713     0.0048451176   0.9823396      0            
    217000   0.95755618     0.004001257    0.94702934     0.00011267729
    218000   1.0213508      0.003995501    1.0096008     -0.00040166085
    219000   0.98530456     0.0037320371   0.97435673     0            
    220000   1.04697        0.0042232146   1.035337       0            
    221000   1.1081719      0.0051892142   1.0976583      0.001799477  
    222000   1.0184401      0.0040397438   1.0043112     -0.0028129348 
    223000   0.96749077     0.0043296018   0.9567092     -3.1669351e-05
    224000   1.0032116      0.0034668107   0.99194447    -0.00012029656
    225000   1.0033035      0.0043529372   0.99215564     0            
    226000   0.96188335     0.0037093034   0.95010012    -0.0010956385 
    227000   1.0614605      0.0031966358   1.0474938     -0.0021727393 
    228000   1.0362951      0.0037008799   1.0247807      0            
    229000   1.0792082      0.0040677518   1.067217       0            
    230000   0.98435473     0.004807051    0.97131972    -0.0020977383 
    231000   1.0310411      0.004037242    1.0195851      0            
    232000   1.0675742      0.0037710697   1.0555373     -0.00017495676
    233000   1.013176       0.0045444688   0.99950078    -0.0024177443 
    234000   0.93824933     0.0035171335   0.92749171    -0.00033262411
    235000   1.0055051      0.0032725773   0.99433281     0            
    236000   1.0912037      0.0045688211   1.0790792      0            
    237000   1.0578446      0.0046661687   1.045986      -0.00010477383
    238000   0.99095545     0.0044201226   0.97524638    -0.0046984524 
    239000   0.93160298     0.0040287736   0.92079574    -0.00045610506
    240000   0.99512798     0.004247566    0.97936539    -0.0047056079 
    241000   0.91640452     0.004743275    0.90443926    -0.0017829866 
    242000   0.96968372     0.0040521871   0.95611288    -0.0027965743 
    243000   0.94110191     0.0030856373   0.93077912     0.00013389755
    244000   0.94932242     0.0040837126   0.93656442    -0.0022099772 
    245000   0.95123825     0.0036332921   0.940505      -0.00016394129
    246000   0.98159304     0.0037624434   0.9695489     -0.0011375485 
    247000   1.0988722      0.0049496721   1.0821966     -0.0044659724 
    248000   0.96916154     0.004550227    0.95775133    -0.00064174779
    249000   1.0815299      0.0051096471   1.0676089     -0.0019040206 
    250000   0.95702636     0.0037551264   0.94607955    -0.00031318286
    251000   0.9351588      0.004098706    0.92202095    -0.0027472008 
    252000   0.94353504     0.0037220729   0.93305132     0            
    253000   0.987482       0.0044756166   0.97440693    -0.0021030467 
    254000   1.0267977      0.0044068412   1.0153889      0            
    255000   0.95463049     0.004241604    0.94402706     3.576427e-06 
    256000   0.95961814     0.004779552    0.94895572     0            
    257000   1.0095628      0.0036203731   0.99834545     0            
    258000   1.0243274      0.0035321746   1.0119058     -0.0010401483 
    259000   1.0165898      0.0041130038   1.0052121     -8.2273818e-05
    260000   0.92071191     0.0033256263   0.90607136    -0.0044104229 
    261000   1.0111337      0.0039068556   0.99910072    -0.00079817428
    262000   0.96237035     0.0042668121   0.94920906    -0.0024682844 
    263000   0.94867985     0.004048316    0.93583863    -0.0023003271 
    264000   0.99157533     0.004355432    0.98055783     0            
    265000   1.0400231      0.0039582106   1.0285322      6.4978676e-05
    266000   0.98230421     0.0033558887   0.97138971     0            
    267000   0.92904302     0.0033647031   0.9185666     -0.00015372036
    268000   0.99409057     0.0045922249   0.98304512     0            
    269000   0.96115272     0.0039775587   0.95047325     0            
    270000   1.0554741      0.0053687487   1.0437487      2.0937931e-06
    271000   1.0364336      0.0048253745   1.0249177      0            
    272000   0.96073006     0.0038909439   0.95005528     0            
    273000   1.0150532      0.0046358002   1.0037836      8.7441728e-06
    274000   0.9997983      0.003839157    0.98868943     0            
    275000   0.97384636     0.0029217209   0.96491166     0.0018858067 
    276000   1.0067023      0.0039874313   0.99551669     0            
    277000   0.88284312     0.0036217868   0.87303375     0            
    278000   1.0430583      0.0048045512   1.0289997     -0.0024690136 
    279000   0.96182327     0.0028982297   0.95111652    -1.981542e-05 
    280000   1.0006161      0.0031677379   0.98908816    -0.00040997351
    281000   1.0715915      0.0037395176   1.0595651     -0.00011983662
    282000   1.0309368      0.0050431939   1.0171007     -0.0023811909 
    283000   0.90164438     0.0040810828   0.88967066    -0.0019554504 
    284000   1.0211778      0.0038988226   1.0098314      0            
    285000   1.0193564      0.0037145722   1.0061563     -0.0018738379 
    286000   1.0056462      0.0043703541   0.99447238     0            
    287000   1.0201243      0.0048947644   1.0076583     -0.0011313052 
    288000   0.9293401      0.003569958    0.91900768    -6.4132109e-06
    289000   0.96322283     0.0040604191   0.95252035     0            
    290000   0.99082903     0.0038850767   0.97981982     0            
    291000   0.95632818     0.0037955833   0.94591605     0.00021374572
    292000   0.9854827      0.003687012    0.97447884    -5.405529e-05 
    293000   0.99779402     0.0040023422   0.98665606    -5.1357527e-05
    294000   0.9555637      0.0046387763   0.94682885     0.0018825197 
    295000   1.0196346      0.0045708086   1.0082692     -3.6086022e-05
    296000   0.91184964     0.0040758991   0.90171797     0            
    297000   1.0442137      0.0041063533   1.0306941     -0.0019172409 
    298000   1.064757       0.0041901623   1.0529263      0            
    299000   0.95752912     0.0043574592   0.94688991     0            
    300000   0.99095193     0.0041567242   0.97994135     0            
    301000   1.0122971      0.0039690047   1.0010494      0            
    302000   0.96572173     0.0032550079   0.95499149     0            
    303000   1.0032305      0.0042465894   0.99369048     0.0016070061 
    304000   1.00044        0.0036036013   0.98932398     0            
    305000   1.0128838      0.0032657018   1.0016296      0            
    306000   0.98120765     0.004892937    0.97030534     0            
    307000   1.0469781      0.0042421734   1.0338141     -0.0015309729 
    308000   0.98608638     0.0034158503   0.97512987     0            
    309000   0.91523812     0.0045509046   0.90506881     0            
    310000   1.0004109      0.0037409253   0.98900199    -0.00029327157
    311000   1.0001491      0.0045179795   0.98860553    -0.00043081067
    312000   1.0373216      0.0046749494   1.0257962      3.7665124e-07
    313000   0.995258       0.003860297    0.98256556    -0.0016340181 
    314000   0.92074998     0.0039997193   0.90704947    -0.0034699512 
    315000   1.072882       0.004837823    1.0609611      0            
    316000   0.96913283     0.0047712107   0.95551091    -0.0028537802 
    317000   0.9448339      0.0041324747   0.9321254     -0.0022103475 
    318000   1.046823       0.0042379608   1.0329457     -0.0022459537 
    319000   1.0662887      0.0045179972   1.0542888     -0.00015227845
    320000   0.98382999     0.0043428606   0.97289855     0            
    321000   0.91010519     0.0042991761   0.89901923    -0.00097367366
    322000   1.0346817      0.0046091348   1.023995       0.00080976567
    323000   1.0619621      0.0036596251   1.0501625      0            
    324000   0.94147575     0.0030304389   0.92854703    -0.0024678777 
    325000   0.98887448     0.0034495523   0.97579195    -0.00209504   
    326000   1.092399       0.0037853241   1.0792569     -0.0010042683 
    327000   1.0374823      0.0040469341   1.0259547      0            
    328000   1.0022012      0.0038410493   0.99106564     0            
    329000   0.98251275     0.0041379859   0.97064034    -0.00095560057
    330000   1.0636786      0.0034310651   1.0491463     -0.0027137149 
    331000   1.0114732      0.0043449987   0.99953431    -0.00070028444
    332000   1.0381226      0.0046097899   1.0265879      0            
    333000   1.0153853      0.0038397678   1.0041032      0            
    334000   1.0111876      0.0034352773   0.99978976    -0.00016240803
    335000   0.93802975     0.0027083553   0.9278035      0.00019631171
    336000   1.0339048      0.0029988911   1.0188849     -0.0035320815 
    337000   1.0359015      0.0042793788   1.0219331     -0.0024583174 
    338000   1.0525608      0.0047311607   1.0383968     -0.0024689342 
    339000   1.0437372      0.0037363456   1.0321387     -1.4082365e-06
    340000   1.0396052      0.0044740518   1.028054       0            
    341000   0.99138146     0.0034814936   0.97795865    -0.002407462  
    342000   0.95453853     0.0039136686   0.94327235    -0.00066019963
    343000   1.0662068      0.0044542831   1.0550519      0.00069180365
    344000   1.1348665      0.0049801225   1.1205819     -0.0016749827 
    345000   0.94181622     0.0044527913   0.93026618    -0.0010854163 
    346000   0.98792276     0.0039184163   0.97694584     0            
    347000   1.0854021      0.0037685405   1.0722233     -0.0011187214 
    348000   1.0079814      0.0031272673   0.9967816      0            
    349000   1.0184104      0.0042004974   1.0070947      0            
    350000   0.92287861     0.0040853204   0.9126244      0            
    351000   0.96992636     0.0037817456   0.9591494      0            
    352000   1.1036752      0.0052681783   1.0890423     -0.0023698105 
    353000   1.0099348      0.0045217582   0.99538498    -0.0033283212 
    354000   0.93330304     0.0034656207   0.92113119    -0.0018018205 
    355000   0.98145302     0.0032069382   0.9701505     -0.00039748658
    356000   1.0121799      0.0050749418   0.99861023    -0.0023232043 
    357000   0.9914915      0.0046351198   0.98047493     0            
    358000   0.95805283     0.0038276317   0.94494102    -0.0024667734 
    359000   0.98514679     0.0038823683   0.97116565    -0.0030350672 
    360000   0.97291193     0.0036918836   0.96134778    -0.0007540089 
    361000   1.0669407      0.0042886268   1.0514677     -0.0036181375 
    362000   1.0476511      0.0038889412   1.0349608     -0.0010498155 
    363000   0.99577653     0.003070164    0.98262911    -0.0020832345 
    364000   0.9642037      0.0037819365   0.95480537     0.0013150452 
    365000   0.98026719     0.004313084    0.96937533     0            
    366000   1.0226296      0.0047044642   1.0083193     -0.0029476953 
    367000   1.0178764      0.0030049884   1.0017324     -0.0048342534 
    368000   0.93295096     0.0045632995   0.92058483    -0.0020000102 
    369000   0.87817489     0.0032732982   0.86658983    -0.0018275676 
    370000   0.97989235     0.00414225     0.96900466     0            
    371000   1.0367668      0.0040787944   1.0227806     -0.0024665266 
    372000   1.0380432      0.0042840293   1.0251973     -0.0013120222 
    373000   0.98125338     0.0039004933   0.96549146    -0.0048591121 
    374000   0.97561434     0.0040331862   0.9621636     -0.0026105847 
    375000   1.0341149      0.005344441    1.0225578     -6.6943451e-05
    376000   0.98317793     0.0039051811   0.97225373     0            
    377000   0.94688084     0.0035981928   0.93635994     0            
    378000   1.0470645      0.0038069954   1.0354304      0            
    379000   0.99167169     0.0036096568   0.98065312     0            
    380000   0.96367        0.0041049512   0.95296255     0            
    381000   1.0085855      0.0040742301   0.99501301    -0.0023659534 
    382000   0.99144812     0.0041138648   0.98043203     0            
    383000   1.0641657      0.0042382414   1.0523417      0            
    384000   1.0330455      0.0041108606   1.0215673      0            
    385000   1.0004472      0.0031850097   0.98933116     0            
    386000   1.0671531      0.0040264128   1.0552959      0            
    387000   0.93786139     0.004022898    0.9299586      0.0025178969 
    388000   0.98372151     0.0048086895   0.97279127     0            
    389000   1.0146302      0.0033227608   1.0033565      0            
    390000   0.99181664     0.0045142812   0.98079645     0            
    391000   1.1116239      0.005103565    1.0992725      0            
    392000   0.99255516     0.0043726478   0.98152677     0            
    393000   1.033228       0.0051228339   1.0217477      0            
    394000   1.0778719      0.0043006067   1.0658955      0            
    395000   1.0227869      0.0043605561   1.0114248      2.2253846e-06
    396000   0.92560604     0.0052500244   0.91532153     0            
    397000   1.0052289      0.0044684647   0.99406019     4.9689832e-07
    398000   0.97434556     0.0039088372   0.96356167     4.2170305e-05
    399000   0.9215507      0.0036040514   0.91131137     1.220568e-07 
    400000   1.0744003      0.0042055808   1.0623378     -0.00012466931
    401000   1.0494765      0.0038698365   1.0353429     -0.0024727323 
    402000   0.95010479     0.0036975259   0.93679147    -0.0027565972 
    403000   1.04792        0.0042763806   1.0362811      4.6478972e-06
    404000   0.96895643     0.0034507078   0.95580627    -0.0023839748 
    405000   1.0559966      0.0047320125   1.0435796     -0.00068372094
    406000   1.0149177      0.0040803699   1.0036408      0            
    407000   1.0125651      0.0038388971   1.0012968     -1.753434e-05 
    408000   1.0138413      0.0044284604   1.0025764      0            
    409000   1.0611311      0.003368945    1.0494877      0.00014690572
    410000   0.97582272     0.0040798552   0.96498025     0            
    411000   0.93875886     0.0031288629   0.9283282      0            
    412000   0.99855744     0.0036128376   0.98746236     0            
    413000   1.0375191      0.0035114007   1.0261172      0.00012607477
    414000   0.96515478     0.0040654365   0.95229801    -0.0021328257 
    415000   0.98956687     0.0042730106   0.97372401    -0.0048476735 
    416000   1.0620327      0.0043892384   1.0502324      0            
    417000   0.93275788     0.002944519    0.92021451    -0.0021793852 
    418000   1.0422931      0.0039646998   1.0331104      0.0023983148 
    419000   0.90818356     0.0033731593   0.89809266     3.1696625e-08
    420000   0.96035315     0.0035534737   0.94968256     0            
    421000   1.0786811      0.0039611965   1.0666215     -7.4240419e-05
    422000   1.012748       0.0050130702   0.99959408    -0.0019011648 
    423000   0.98126449     0.004566101    0.9702251     -0.00013645868
    424000   0.98848642     0.0045086571   0.97748176    -2.1480565e-05
    425000   1.0201399      0.0034386329   1.0082618     -0.00054317441
    426000   1.0017303      0.0040270619   0.98960123    -0.00099873085
    427000   0.94549796     0.0038882364   0.93273864    -0.0022537825 
    428000   1.0370203      0.0041632858   1.0254978      0            
    429000   0.92078047     0.0036493286   0.91054958     0            
    430000   0.97727728     0.0046470438   0.96402922    -0.002389421  
    431000   0.95365173     0.0036300602   0.94059082    -0.0024647748 
    432000   1.0479383      0.0044461157   1.0350457     -0.0012487865 
    433000   0.89725746     0.0035817823   0.8872811     -6.8253066e-06
    434000   0.9687043      0.0044766383   0.95794092     0            
    435000   1.0481795      0.0044155422   1.0357724     -0.00076069652
    436000   0.97903419     0.0044935324   0.9645089     -0.003647133  
    437000   1.0700733      0.0040322288   1.0570101     -0.0011735525 
    438000   0.92269263     0.0036914317   0.91246142     2.0932732e-05
    439000   1.0278598      0.0046138751   1.013752      -0.0026871111 
    440000   1.0253596      0.0044486491   1.0121878     -0.0017788591 
    441000   1.0057007      0.0038180879   0.99069585    -0.0038303842 
    442000   0.9903426      0.0038784775   0.97497185    -0.0043669416 
    443000   1.066722       0.0045179233   1.0517732     -0.0030963193 
    444000   0.9839036      0.0039559102   0.96646619    -0.0065051467 
    445000   1.0119457      0.0044350637   0.99815207    -0.0025498294 
    446000   1.0133954      0.0051970558   1.0011906     -0.00094481896
    447000   1.0768513      0.005306953    1.062519      -0.0023672982 
    448000   0.94267816     0.0034844423   0.93026214    -0.0019418132 
    449000   0.91082022     0.0025183368   0.8987784     -0.0019215857 
    450000   1.0024057      0.0032814123   0.98919731    -0.0020705358 
    451000   0.91859492     0.0035158531   0.90784612    -0.00054219546
    452000   1.0366351      0.003636578    1.0251169      0            
    453000   1.0220468      0.0040766751   1.0106948      4.0560719e-06
    454000   1.0148771      0.0045597186   1.0028641     -0.0007366294 
    455000   0.97916804     0.0033735178   0.96828839     0            
    456000   0.98363122     0.003910478    0.9722145     -0.0004874852 
    457000   1.1024092      0.0061897452   1.0879823     -0.0021779133 
    458000   1.0290754      0.0040562275   1.0171735     -0.00046773804
    459000   0.98227741     0.0038450522   0.97361855     0.0022553351 
    460000   0.95082243     0.0041529568   0.94025773     0            
    461000   1.0929045      0.0046029904   1.0800422     -0.00071900402
    462000   0.96548654     0.0042103077   0.95472314    -3.5773949e-05
    463000   0.96779669     0.005146649    0.95729989     0.00025649179
    464000   0.90564048     0.0035188874   0.89311391    -0.0024638894 
    465000   0.99254591     0.0049555542   0.97992957    -0.0015880557 
    466000   0.95165331     0.0038827351   0.93944796    -0.0016314291 
    467000   0.9753881      0.0032426688   0.96455071     2.5476096e-07
    468000   0.99783562     0.0040291758   0.98675879     1.0230451e-05
    469000   1.0601277      0.0046319452   1.0483485      0            
    470000   0.98049786     0.0039390076   0.96960344     0            
    471000   0.96357442     0.0040493854   0.95286804     0            
    472000   1.045102       0.0045609933   1.0319695     -0.0015203209 
    473000   1.0533362      0.0038317222   1.0416286     -3.8663642e-06
    474000   1.0400614      0.0042466649   1.0278019     -0.00070332452
    475000   1.0121456      0.0042552391   1.0001605     -0.00073904658
    476000   1.0066981      0.0042451446   0.9955126      0            
    477000   1.0710135      0.004099289    1.0591135      1.9250066e-07
    478000   0.9275558      0.0039029455   0.91738513     0.00013550615
    479000   0.98427558     0.0038179173   0.97333919     0            
    480000   1.0129592      0.0040529128   1.0017041      0            
    481000   1.0230797      0.0048817283   1.0117125      3.4553384e-07
    482000   1.1385732      0.0055843313   1.1236079     -0.0023144465 
    483000   0.95973233     0.0038230747   0.94906864     0            
    484000   0.98639557     0.0039127227   0.97526104    -0.00017457692
    485000   1.0125641      0.0041072687   1.0009573     -0.00035608821
    486000   0.97289581     0.0039624678   0.96208682     9.6572843e-07
    487000   0.97395903     0.0039512008   0.96145234    -0.0016849265 
    488000   0.9635459      0.0033317279   0.95283983     0            
    489000   0.98368153     0.0031842612   0.9714252     -0.0013265336 
    490000   1.0709863      0.0044786619   1.0598822      0.00079573478
    491000   0.99900512     0.0033939992   0.98607528    -0.0018297843 
    492000   0.99723579     0.0030515648   0.9861554      0            
    493000   1.006955       0.004627009    0.99576658     0            
    494000   1.0116643      0.0040262131   1.0002308     -0.00019282292
    495000   0.93296586     0.0032112546   0.92264965     5.0086074e-05
    496000   0.94862062     0.0036358701   0.9377711     -0.00030928361
    497000   1.0304858      0.0041926654   1.0194807      0.00044471423
    498000   1.0087642      0.0048537317   0.99755571     0            
    499000   1.0651995      0.0044862137   1.053364       0            
    500000   0.97567782     0.0038095116   0.96502633     0.00018937099
    501000   1.074903       0.0041806002   1.0629596      0            
    502000   1.0479445      0.0048148997   1.0363007      0            
    503000   0.97924882     0.0033403935   0.96836828     0            
    504000   0.99147431     0.0041436777   0.98051581     5.7882643e-05
    505000   0.9476079      0.0028521845   0.93536491    -0.001714014  
    506000   1.0113372      0.004896923    1.0001001      0            
    507000   1.0436524      0.0038710655   1.0320563      0            
    508000   0.96616905     0.0039979287   0.95543384     0            
    509000   1.0256205      0.0043024115   1.0122787     -0.0019460833 
    510000   1.0358803      0.0040248035   1.0234117     -0.00095885307
    511000   0.9938302      0.0045876956   0.97845097    -0.0043366661 
    512000   1.0536727      0.004500412    1.0381635     -0.0038017211 
    513000   1.0479031      0.004166587    1.0338037     -0.0024560597 
    514000   1.0531704      0.0043574952   1.041825       0.00035656375
    515000   0.99064555     0.0038578502   0.97830666    -0.0013317184 
    516000   1.0319687      0.0040562091   1.0170365     -0.0034658597 
    517000   1.0289031      0.0039149606   1.015167      -0.0023038291 
    518000   0.98441635     0.0034094922   0.97193228    -0.0015461088 
    519000   0.96144768     0.0033504602   0.94778483    -0.0029801031 
    520000   1.0737323      0.0047583129   1.0602256     -0.0015763341 
    521000   0.93292333     0.003027134    0.92255752     0            
    522000   0.92903722     0.0041643435   0.91871458     0            
    523000   1.0485201      0.0043198109   1.0368699      0            
    524000   1.0811213      0.0047706119   1.0691088      0            
    525000   0.97783946     0.003798561    0.96697458     0            
    526000   0.98827637     0.0032441591   0.97729552     0            
    527000   1.0568236      0.0045276431   1.0450811      0            
    528000   1.0212364      0.0034762264   1.0098894      0            
    529000   0.93291182     0.0042437239   0.92254613     0            
    530000   0.95648915     0.0038123211   0.9458615      0            
    531000   1.0100716      0.0035463582   0.99884861     0            
    532000   0.98991074     0.0048411788   0.97891174     0            
    533000   1.0093022      0.0041852419   0.99808773     0            
    534000   0.91992888     0.0035044233   0.90970909     1.6372643e-06
    535000   1.0667658      0.0037435655   1.0549129      0            
    536000   0.98797027     0.0049644354   0.97699282     0            
    537000   1.0342377      0.0045010852   1.0227461      0            
    538000   1.0303075      0.0046206941   1.0188596      0            
    539000   0.9724351      0.004226058    0.96163026     0            
    540000   1.0222939      0.0039600405   1.0110372      0.00010211628
    541000   1.0457373      0.0047391013   1.033485      -0.00063306363
    542000   1.0016092      0.0043543766   0.99274684     0.0022666628 
    543000   1.0486338      0.0050432586   1.0366892     -0.00029312328
    544000   1.0184555      0.0050385703   1.0071393      0            
    545000   1.0138593      0.0039097861   1.0022686     -0.0003255066 
    546000   0.97974789     0.0037239385   0.96411689    -0.0047449122 
    547000   1.0189464      0.004305857    1.0071847     -0.0004400577 
    548000   1.0527598      0.0052493929   1.0410625      0            
    549000   1.0031092      0.0031963217   0.99323324     0.0012696458 
    550000   1.1269996      0.0048670143   1.1128965     -0.0015808706 
    551000   0.954867       0.0034065153   0.94335009    -0.00090727694
    552000   0.93493551     0.0040825888   0.92454758     2.3982267e-07
    553000   1.0722123      0.0045471915   1.057647      -0.0026518081 
    554000   0.99205989     0.0053033178   0.98115798     0.00012097879
    555000   1.0079617      0.0028494865   0.99654586    -0.00021626616
    556000   1.0142833      0.0045949309   1.0019347     -0.0010787152 
    557000   1.0916523      0.0040535629   1.0786898     -0.00083303247
    558000   0.968789       0.0035277121   0.96064511     0.0026204321 
    559000   1.0033563      0.0045617014   0.99122516    -0.00098277619
    560000   1.0316885      0.0040489721   1.0196149     -0.00061035371
    561000   1.0377116      0.004770736    1.0237629     -0.0024185737 
    562000   0.9863462      0.0037280981   0.97429001    -0.0010967931 
    563000   0.98868855     0.004230929    0.97772494     2.1815115e-05
    564000   1.0515688      0.0035157677   1.0361493     -0.0037353858 
    565000   0.965167       0.0050205782   0.95250353    -0.0019393874 
    566000   1.0290671      0.0046283872   1.017418      -0.00021508655
    567000   0.93945326     0.0042019512   0.92901489     0            
    568000   0.97858508     0.0046547179   0.96639381    -0.0013181085 
    569000   0.98077409     0.0044121806   0.96887419    -0.001002414  
    570000   1.0130311      0.0039253345   1.0025611      0.00078586523
    571000   1.0368335      0.0049996218   1.0207129     -0.0046002678 
    572000   1.0069972      0.0039626005   0.99334414    -0.0024641576 
    573000   1.0469044      0.0042579976   1.0352721      0            
    574000   1.0233757      0.0043841818   1.0120049      0            
    575000   1.0950509      0.0048280619   1.0828837      0            
    576000   1.0112361      0.0032711154   1.0000001      0            
    577000   1.0365025      0.0041574924   1.0250124      2.660072e-05 
    578000   0.96077645     0.0028759075   0.95010115     0            
    579000   0.93077051     0.0029842632   0.92042861     0            
    580000   0.85190632     0.0032376137   0.84244069     0            
    581000   0.99784964     0.0038157627   0.98691118     0.00014876143
    582000   1.0793055      0.0046202415   1.0673132      0            
    583000   1.0661777      0.0045207008   1.0499624     -0.0043688902 
    584000   0.96171561     0.0041165598   0.9487255     -0.002304375  
    585000   0.86936272     0.0026387174   0.85953916    -0.00016397108
    586000   1.0367939      0.0042208506   1.0220845     -0.0031893929 
    587000   1.0937515      0.0050628633   1.0797898     -0.0018088907 
    588000   1.0046779      0.0045030318   0.99845967     0.004944907  
    589000   1.0987378      0.0046107066   1.0865296      0            
    590000   1.0173291      0.004605945    1.0060255      0            
    591000   1.0900703      0.0048771196   1.0751528     -0.0028055499 
    592000   0.84413415     0.004052671    0.83035098    -0.0044039049 
    593000   1.0531092      0.0046353243   1.0405094     -0.00089858049
    594000   0.9776767      0.0043070607   0.9643547     -0.0024589328 
    595000   0.94172365     0.0041470733   0.93126466     4.603362e-06 
    596000   1.032311       0.0044985452   1.0208409      0            
    597000   1.0437253      0.0035684513   1.0321284      0            
    598000   1.0234247      0.0041685168   1.0127581      0.00070483725
    599000   0.98724735     0.0044918402   0.97485911    -0.0014188238 
    600000   1.1254448      0.0052390819   1.1130866      0.00014666749
    601000   0.98590969     0.0037981975   0.97495514     0            
    602000   1.0272572      0.003948832    1.0158432      0            
    603000   0.94897016     0.0030654903   0.93657072    -0.001855332  
    604000   0.90301377     0.0034853644   0.89071951    -0.0022607771 
    605000   0.97792552     0.0040299821   0.96705894    -7.4211352e-07
    606000   1.0049113      0.0039897468   0.9917028     -0.0020428193 
    607000   0.98221131     0.0038455935   0.96880089    -0.0024969667 
    608000   1.0277568      0.0045841739   1.016864       0.00052671722
    609000   0.96737602     0.0039084841   0.95662881     1.4207613e-06
    610000   0.97562005     0.0044579609   0.96477983     0            
    611000   0.93910229     0.004524681    0.92866782     0            
    612000   1.0073856      0.003888485    0.99619243     0            
    613000   0.99304247     0.00417735     0.98200866     0            
    614000   1.0298525      0.004519813    1.0184097      0            
    615000   1.0439182      0.0039258458   1.0321785     -0.00014052819
    616000   1.0686067      0.004019157    1.0572882      0.00055498917
    617000   0.91171707     0.0033656638   0.90158688     0            
    618000   1.0066704      0.0045117034   0.99548518     0            
    619000   1.0744166      0.0041801505   1.0624786      0            
    620000   0.97771746     0.0030371818   0.96685394     0            
    621000   0.94513362     0.0044273385   0.93463213     0            
    622000   0.92305362     0.0037879946   0.91279747     0            
    623000   0.92908588     0.0035395131   0.9202675      0.0015047958 
    624000   1.0179182      0.00399147     1.006608       0            
    625000   0.99993776     0.004298882    0.98635835    -0.0024689948 
    626000   1.0135685      0.004657511    1.0023066      0            
    627000   1.0557303      0.005734216    1.0426337     -0.0013663294 
    628000   1.0230936      0.0045965644   1.0074989     -0.0042270148 
    629000   0.96004564     0.0037894153   0.94549642    -0.003882041  
    630000   1.048839       0.0043188337   1.0378869      0.00070164624
    631000   0.97851194     0.0039964445   0.96569267    -0.0019469154 
    632000   1.012452       0.0043823084   1.0004861     -0.00071636816
    633000   1.034484       0.0046265372   1.0229898      0            
    634000   1.0462154      0.0036659287   1.031183      -0.0034078572 
    635000   1.0049637      0.0041196807   0.99283808    -0.00095935213
    636000   0.97986712     0.0040635779   0.96932491     0.00034520271
    637000   1.0361703      0.003894496    1.024304      -0.00035330331
    638000   1.0170567      0.0048542822   1.0036104     -0.002145665  
    639000   0.98949583     0.0047643172   0.9745459     -0.0039555307 
    640000   0.95867527     0.0041257257   0.94678724    -0.0012360849 
    641000   1.0646093      0.0031374777   1.0507908     -0.0019895151 
    642000   0.90529538     0.0023873217   0.89411474    -0.0011218027 
    643000   0.9852938      0.0044770136   0.97048307    -0.003863023  
    644000   0.9446946      0.0037504437   0.93175849    -0.0024395048 
    645000   0.95973687     0.0038964119   0.94781832    -0.0012548058 
    646000   0.97999364     0.0040172492   0.96784229    -0.0012625272 
    647000   1.0133937      0.0033932507   1.0001856     -0.0019482036 
    648000   1.0261209      0.0032662487   1.0124525     -0.0022670945 
    649000   0.97647103     0.0034788788   0.96475406    -0.00086729909
    650000   1.0151744      0.0036102925   1.0003497     -0.003545026  
    651000   0.92495394     0.0036465873   0.91301343    -0.0016632526 
    652000   1.0721362      0.0047152821   1.0602236      0            
    653000   1.0436434      0.0041196905   1.0320473      0            
    654000   1.0410329      0.0051409338   1.0280547     -0.001411164  
    655000   1.0006617      0.0046797127   0.98696416    -0.0025790351 
    656000   0.99687531     0.003705876    0.9857762     -2.2716276e-05
    657000   1.0222625      0.0045256553   1.0108577     -4.636014e-05 
    658000   0.95509956     0.0042151549   0.94625376     0.0017664149 
    659000   1.1059738      0.0039947272   1.0913523     -0.002332914  
    660000   1.0580277      0.0040657831   1.0462719      0            
    661000   1.1106528      0.0040813468   1.0958634     -0.0024487791 
    662000   1.0084616      0.0041525543   0.99725648     0            
    663000   1.0452728      0.0038276209   1.0337004      4.1719379e-05
    664000   0.89554307     0.0038315747   0.88559246    -1.3413802e-07
    665000   0.99261123     0.0041808525   0.98158221     0            
    666000   0.99424043     0.0037808827   0.98319574     2.4230741e-06
    667000   0.97693104     0.0040852026   0.96830623     0.0022299733 
    668000   0.99533378     0.0049093929   0.98409691    -0.00017760973
    669000   1.1182646      0.0056397973   1.1058394      0            
    670000   1.0665554      0.0046156864   1.0547047      0            
    671000   0.98850739     0.003818905    0.97752398     0            
    672000   0.94781159     0.0036254317   0.93728035     0            
    673000   0.93070605     0.0031447362   0.92036487     0            
    674000   1.0199859      0.002489418    1.0086527      0            
    675000   1.0384766      0.0039221504   1.026393      -0.00054498607
    676000   1.0250429      0.0050684889   1.0136843      3.0717979e-05
    677000   0.93155878     0.004465363    0.91891463    -0.0022935041 
    678000   1.0074837      0.0046483676   0.99628291    -6.574448e-06 
    679000   0.96743106     0.00383204     0.95668182     0            
    680000   0.98806443     0.0038265578   0.97504662    -0.0020393179 
    681000   1.0006815      0.0035644603   0.98998786     0.00042509013
    682000   0.93973854     0.0041058061   0.93059963     0.0013026303 
    683000   1.0367524      0.0043696988   1.025233       0            
    684000   0.92974185     0.0044738047   0.91941139     0            
    685000   1.044217       0.0040851368   1.0326146      0            
    686000   1.0569982      0.005256386    1.0452537      0            
    687000   1.0198298      0.004103659    1.0085032      4.936516e-06 
    688000   0.9970245      0.0040364651   0.98554816    -0.0003982894 
    689000   1.0681713      0.0038293457   1.0563027      0            
    690000   1.0280908      0.0050043716   1.0166676      0            
    691000   0.9506755      0.0040271959   0.94011242    -1.2324106e-08
    692000   0.94078334     0.0046884214   0.928661      -0.0016691938 
    693000   0.90165421     0.002965432    0.88851044    -0.003125392  
    694000   0.98402893     0.0040847971   0.96960639    -0.003488879  
    695000   0.98128236     0.0046877727   0.96768299    -0.0026962361 
    696000   1.0650683      0.0030947533   1.0509598     -0.0022744147 
    697000   1.0129905      0.0037979307   0.99833575    -0.0033993131 
    698000   0.97417009     0.0046895774   0.96331176    -3.4216232e-05
    699000   1.0863532      0.0046455571   1.0734034     -0.00087922982
    700000   0.99158979     0.0045308708   0.98057212     0            
    701000   1.0081167      0.0036312452   0.99691543     1.2286195e-08
    702000   1.0077263      0.0034304192   0.99526611    -0.0012632336 
    703000   1.0349334      0.0042563834   1.0210726     -0.0023615717 
    704000   1.0158634      0.0037792451   1.0045784      2.4001176e-06
    705000   0.98304974     0.0045166914   0.97023115    -0.0018958138 
    706000   0.98913408     0.0046058364   0.97814379     8.730628e-08 
    707000   1.0767849      0.0041082277   1.0648206      0            
    708000   0.99682981     0.0037510607   0.98334448    -0.0024094459 
    709000   1.0772256      0.0037025772   1.0629449     -0.0023115494 
    710000   0.99796397     0.0047046347   0.98698572     0.0001102379 
    711000   0.95565755     0.0048682451   0.94257903    -0.0024601    
    712000   0.96084737     0.0042294041   0.9492273     -0.00094399274
    713000   1.0310176      0.0043588803   1.0194317     -0.00013016952
    714000   1.0080346      0.0041301104   0.99503512    -0.001799114  
    715000   0.99118659     0.0047175301   0.97899306    -0.0011803429 
    716000   0.99460747     0.0029473794   0.98271499    -0.00084128351
    717000   0.92354278     0.0037013991   0.91335848     7.7279372e-05
    718000   0.9597321      0.0039974055   0.94739537    -0.0016730343 
    719000   0.9651469      0.0032533502   0.95347233    -0.00095071139
    720000   1.0639851      0.0044549239   1.0520342     -0.00012881644
    721000   1.0918018      0.0057167725   1.0785924     -0.0010782828 
    722000   0.89623439     0.0040476744   0.88554641    -0.00072982008
    723000   1.0158604      0.0045539037   1.0030699     -0.0015031911 
    724000   0.92628148     0.0046504224   0.91441234    -0.0015771179 
    725000   0.9801027      0.0034750446   0.96993563     0.00072296002
    726000   1.0036076      0.0043208153   0.99245643     0            
    727000   1.0158335      0.0047144414   1.0041271     -0.0004193223 
    728000   1.0023586      0.0036145807   0.98912085    -0.002100421  
    729000   1.0389925      0.0050042521   1.0274598      1.1677199e-05
    730000   1.0325714      0.0044050806   1.020506      -0.0005923423 
    731000   1.016398       0.0042161102   1.0051047      0            
    732000   0.90939145     0.003455669    0.8992871      0            
    733000   1.0145401      0.0038995507   1.0032674      0            
    734000   0.93664337     0.0034278522   0.92623622     0            
    735000   1.0147128      0.0036480634   1.002613      -0.00082528651
    736000   1.1021231      0.0055830737   1.0903013      0.00042394343
    737000   1.0066979      0.0041227927   0.99551235     0            
    738000   0.94367855     0.0034281661   0.93319323     0            
    739000   1.0754651      0.0045342157   1.0613116     -0.0022038533 
    740000   0.97783018     0.0046115494   0.96684797    -0.00011742587
    741000   0.97695883     0.004059457    0.96365781    -0.0024459191 
    742000   0.96953685     0.0036254476   0.95876422     0            
    743000   1.0147284      0.0045342659   1.0034536      0            
    744000   0.90954447     0.003803268    0.89943842     0            
    745000   0.97009936     0.0034969552   0.95685907    -0.0024613998 
    746000   1.0355016      0.0043828319   1.0240952      9.9106241e-05
    747000   0.93979439     0.0026756228   0.92935223     0            
    748000   0.85948447     0.00358753     0.84993464     0            
    749000   1.0401634      0.0050363643   1.028606       0            
    750000   1.0180536      0.0041915093   1.0067419      0            
    751000   0.99126993     0.0044365279   0.98025582     0            
    752000   1.0477142      0.0036999613   1.0388674      0.0027944959 
    753000   1.0554852      0.005482496    1.0437576      0            
    754000   0.97594147     0.0034436471   0.96513058     3.2899366e-05
    755000   0.95855608     0.0035049699   0.9454473     -0.0024581561 
    756000   0.99207321     0.0038578989   0.98107094     2.0775408e-05
    757000   1.0679284      0.0049508945   1.0560625      0            
    758000   0.93502772     0.0027239693   0.92463852     0            
    759000   0.99281025     0.0041318234   0.98177902     0            
    760000   1.0334239      0.0043416207   1.0232178      0.0012763515 
    761000   1.0314038      0.0043508914   1.0199437      0            
    762000   0.97471912     0.0035959707   0.96984902     0.0059601155 
    763000   1.0616771      0.0042874576   1.0474195     -0.0024612073 
    764000   0.93732487     0.0040000732   0.92348797    -0.0034221783 
    765000   0.95975155     0.0039774928   0.94531571    -0.0037719291 
    766000   1.0220927      0.0032767829   1.0097042     -0.0010319201 
    767000   0.94997714     0.0043066064   0.93942184     0            
    768000   1.0469303      0.0034942202   1.0352998      2.0854145e-06
    769000   1.031996       0.0034407239   1.0185314     -0.0019980403 
    770000   0.89933423     0.0040309047   0.88934163     0            
    771000   1.0077624      0.0052889218   0.99661237     4.7335752e-05
    772000   0.98074329     0.0041425905   0.96984615     0            
    773000   1.0591457      0.003749005    1.0473774      0            
    774000   1.026055       0.0043609947   1.0121916     -0.0024627813 
    775000   1.1465729      0.0043923776   1.1328433     -0.00098992004
    776000   0.958776       0.0039522494   0.94812293     0            
    777000   0.96234721     0.0037998661   0.95165447     0            
    778000   1.0075246      0.0052449701   0.99594112    -0.00038879558
    779000   0.97931459     0.0044293418   0.96843332     0            
    780000   1.0089926      0.0043059579   0.99718844    -0.00059316537
    781000   0.95622121     0.0034171616   0.94559653     0            
    782000   1.0722555      0.0047092648   1.0603415      0            
    783000   0.92671767     0.0042035021   0.91774668     0.0013258738 
    784000   0.96133969     0.003753482    0.95065814     0            
    785000   0.98656652     0.0041332405   0.97368197    -0.0019226951 
    786000   0.97967765     0.0028450279   0.97342418     0.004631839  
    787000   0.9868704      0.0044334985   0.97412763    -0.0017775433 
    788000   1.0488297      0.004526431    1.037176       0            
    789000   1.0342017      0.0048305747   1.0227106      0            
    790000   1.1481306      0.0048924331   1.1353736      0            
    791000   1.036299       0.0043700928   1.023986      -0.00079859172
    792000   1.0438182      0.0039029681   1.0303931     -0.0018271658 
    793000   0.95413527     0.0038056918   0.94353376     0            
    794000   0.97362422     0.0029836432   0.96280617     0            
    795000   0.97427614     0.0045760007   0.96345085     0            
    796000   1.0732039      0.0045615768   1.0612396     -3.9815349e-05
    797000   0.99018716     0.0045375642   0.97802202    -0.0011630578 
    798000   1.0817199      0.0047119036   1.0675872     -0.0021136341 
    799000   0.99144696     0.0048894116   0.98061773     0.00018685656
    800000   1.0195959      0.0034149243   1.008267       0            
    801000   0.99124924     0.0045354364   0.98023536     0            
    802000   1.0301346      0.0045493978   1.0186887      0            
    803000   0.92937125     0.0036588726   0.91884728    -0.00019761949
    804000   0.99620372     0.0048861423   0.98378408    -0.0013507048 
    805000   1.1022734      0.0051434054   1.0890638     -0.00096213575
    806000   1.0412612      0.003793013    1.029692       3.2615104e-07
    807000   1.0514949      0.0045735415   1.0398116      0            
    808000   1.0759723      0.0043946461   1.0640171      0            
    809000   1.0872988      0.0047585454   1.0758278      0.00061012392
    810000   1.0149609      0.0042899623   1.0036835      0            
    811000   0.95417716     0.0035461761   0.94357519     0            
    812000   0.97840278     0.0047885896   0.96753164     0            
    813000   1.0414         0.0043689506   1.0310737      0.0012448101 
    814000   0.96613845     0.0040051931   0.95557089     0.00016731961
    815000   1.0649103      0.0048012372   1.0530779      0            
    816000   1.0871669      0.0042771344   1.0750873      0            
    817000   0.87996623     0.0042641482   0.87018883     0            
    818000   0.92906477     0.003072491    0.91909186     0.00035003341
    819000   1.0423745      0.0047253404   1.0295        -0.001292566  
    820000   1.028822       0.0042922898   1.0160338     -0.0013568505 
    821000   0.97372451     0.004748443    0.96272656    -0.00017878628
    822000   1.01468        0.0046751819   1.0034058      0            
    823000   1.042355       0.0029355721   1.0307733      0            
    824000   0.91199132     0.0041818302   0.90185809     0            
    825000   1.058045       0.0046822538   1.046289       0            
    826000   1.0244242      0.0046163541   1.0130417      0            
    827000   0.90281602     0.0038170094   0.89278473     0            
    828000   1.0141752      0.0048838216   1.0029066      0            
    829000   1.0285407      0.0042746078   1.0171125      0            
    830000   0.97230436     0.0034370152   0.96150097     0            
    831000   0.91730759     0.0037444614   0.90717532     6.003622e-05 
    832000   0.95794885     0.0040006027   0.94730497     0            
    833000   1.0486818      0.0043491769   1.0370297      0            
    834000   1.0412469      0.0039856425   1.0296993      2.1809701e-05
    835000   0.95382465     0.0042181229   0.9432266      0            
    836000   0.99458422     0.0048106368   0.9818134     -0.0017198829 
    837000   1.0242705      0.005123324    1.0128897      0            
    838000   1.013201       0.0047376337   1.0019432      0            
    839000   1.0466216      0.0042478338   1.0349925      0            
    840000   1.0250907      0.0050522015   1.0137008      0            
    841000   0.99027652     0.0039538983   0.9794632      0.00018975482
    842000   1.0250761      0.0044956325   1.0136864      0            
    843000   1.0672193      0.0049858067   1.0521277     -0.0032336626 
    844000   0.97265574     0.0035768294   0.96184846     0            
    845000   0.96022332     0.0039669459   0.94955418     0            
    846000   1.043245       0.0051956125   1.0319395      0.00028611616
    847000   0.9600318      0.0037109307   0.94936478     0            
    848000   1.0028365      0.003277928    0.99169384     0            
    849000   0.99693145     0.0049783221   0.98611076     0.00025632582
    850000   1.0364375      0.0040548906   1.0237794     -0.0011421096 
    851000   0.97009064     0.004871792    0.95731333    -0.0019985266 
    852000   0.93422732     0.0039321077   0.92081048    -0.003036533  
    853000   0.95945075     0.0041331797   0.94699068    -0.0017995064 
    854000   0.98714766     0.0039030831   0.97430283    -0.0018765246 
    855000   0.85311585     0.003917767    0.84088267    -0.0027541152 
    856000   1.0443136      0.0042944459   1.0300948     -0.0026152971 
    857000   1.0229098      0.003833926    1.0066477     -0.0048963983 
    858000   1.0199921      0.0036054463   1.0095413      0.00088238178
    859000   1.0126518      0.0042722951   0.99922625    -0.0021738912 
    860000   0.98600898     0.0039202725   0.97505333     0            
    861000   1.0094946      0.0039900048   0.99611463    -0.0021633213 
    862000   1.0164226      0.004283965    1.0051291     -7.9353434e-13
    863000   1.1134743      0.0052319936   1.1009907     -0.00011164628
    864000   1.000532       0.0041248395   0.98941496     0            
    865000   1.021649       0.0040085441   1.0086068     -0.0016904966 
    866000   1.017908       0.0035956479   1.0044997     -0.0020982254 
    867000   0.97171554     0.0032843353   0.95857267    -0.0023460313 
    868000   0.97926834     0.0037098729   0.96838758     0            
    869000   1.002996       0.0035929686   0.99095745    -0.00089410769
    870000   1.0068373      0.0034094714   0.99542681    -0.00022336574
    871000   1.0684191      0.0045730491   1.0565477      0            
    872000   0.94895424     0.0037514627   0.9384103      0            
    873000   1.0371611      0.0040082711   1.0256371      0            
    874000   1.0054937      0.0043336443   0.99432167     7.6233734e-08
    875000   0.94889431     0.0040910976   0.93835104     0            
    876000   0.98964583     0.0041852698   0.97864976     0            
    877000   1.0446534      0.0043208705   1.0330462      0            
    878000   1.0086281      0.0040661462   0.9989441      0.0015230128 
    879000   0.9919345      0.0043936704   0.98091301     0            
    880000   0.96743581     0.0052303526   0.95466315    -0.0020233726 
    881000   0.95573933     0.0045510397   0.94512        0            
    882000   0.97914061     0.0036064663   0.96826127     0            
    883000   0.9940323      0.0039759638   0.98051864    -0.0024688585 
    884000   1.0459825      0.0030751079   1.0343631      2.6019344e-06
    885000   1.0543327      0.0032962386   1.0426179      0            
    886000   0.9816085      0.0033516844   0.97070174     0            
    887000   1.0807484      0.0049029647   1.0687401      0            
    888000   0.98326241     0.0040088411   0.97233727     0            
    889000   1.0893167      0.0034253593   1.0772132      0            
    890000   0.92243187     0.00432446     0.91218263     0            
    891000   0.95673972     0.0040502283   0.94610928     0            
    892000   1.0328258      0.0043702975   1.0215466      0.00019668219
    893000   0.96808779     0.0033175759   0.95733126     0            
    894000   0.98594707     0.003583899    0.9749921      0            
    895000   0.88074214     0.003772279    0.87085528    -0.00010084196
    896000   1.0854157      0.0053131315   1.0707437     -0.0026118025 
    897000   0.99682556     0.0039927385   0.98575092     1.1921922e-06
    898000   1.015914       0.0054149316   1.0008532     -0.0037729029 
    899000   0.84259259     0.0030107684   0.83123144    -0.001999011  
    900000   1.0085984      0.0034667328   0.99758094     0.00018915953
    901000   0.99849979     0.0038397732   0.98523507    -0.0021702811 
    902000   0.92361079     0.0035802742   0.91245818    -0.00089026517
    903000   1.005541       0.0038718036   0.99436833     0            
    904000   1.0039844      0.0038274916   0.99367113     0.00084213572
    905000   0.92338103     0.0037027858   0.91077396    -0.0023472872 
    906000   1.0185242      0.003893352    1.0050288     -0.0021784463 
    907000   1.0123923      0.0037298977   1.0025676      0.0014240343 
    908000   1.051327       0.0030892827   1.039567      -7.8664304e-05
    909000   0.97227898     0.0038202489   0.96147588     0            
    910000   1.0155703      0.0040729047   1.0042862      0            
    911000   1.0779041      0.0036949659   1.0659274      0            
    912000   1.135141       0.0053004335   1.1225284      0            
    913000   1.0226225      0.0037584791   1.01126        0            
    914000   1.0805725      0.0042895831   1.0685661      0            
    915000   1.0189322      0.0040905307   1.0076107      0            
    916000   1.0241241      0.0047727574   1.0127449      0            
    917000   1.0219743      0.0047833569   1.010619       0            
    918000   0.89436694     0.0039848872   0.88442992     3.976796e-07 
    919000   0.96288713     0.0041829627   0.94975577    -0.0024326109 
    920000   0.98982861     0.003824656    0.97807202    -0.000758491  
    921000   1.0008614      0.0052485716   0.98938458    -0.00035612876
    922000   0.96952914     0.0041632111   0.95815923    -0.00059736369
    923000   0.96225427     0.0036515641   0.95110986    -0.0004526995 
    924000   0.96134081     0.0043555288   0.94662867    -0.0040305773 
    925000   0.9430418      0.0038887902   0.93034908    -0.0022144774 
    926000   0.95406796     0.0035411735   0.9406229     -0.0028443023 
    927000   0.99574751     0.0040732998   0.98326811    -0.0014155442 
    928000   0.97810725     0.0036283385   0.96705719    -0.00018220106
    929000   1.0731868      0.0045081797   1.0610921     -0.00017040448
    930000   0.97322365     0.0035395961   0.96119182    -0.0012182279 
    931000   0.98586608     0.0041486848   0.97285904    -0.0020529726 
    932000   1.107816       0.0044753243   1.095189      -0.00031785587
    933000   1.0717296      0.003841439    1.0565397     -0.0032818069 
    934000   1.0119216      0.0033778131   0.99961402    -0.0010640432 
    935000   0.98344601     0.0042561453   0.97154368    -0.00097515765
    936000   1.0660585      0.005467076    1.0511068     -0.0031065954 
    937000   1.0559301      0.0035672881   1.0442002      2.6732564e-06
    938000   1.0275905      0.002865782    1.0140822     -0.0020906829 
    939000   1.0212441      0.0042005406   1.004045      -0.0058518575 
    940000   0.96730725     0.0037531361   0.95655939     0            
    941000   0.99170363     0.0041519896   0.97993375    -0.00075095092
    942000   1.082119       0.004426273    1.0697082     -0.00038727974
    943000   0.87701684     0.0030952599   0.86726862    -3.5842573e-06
    944000   1.0075751      0.0038446018   0.99233979    -0.0040400108 
    945000   1.0118235      0.0036066985   1.0001916     -0.0003893425 
    946000   1.1119911      0.0051787988   1.0983284     -0.001307174  
    947000   0.95592609     0.0026355275   0.94179694    -0.0035077527 
    948000   1.0414062      0.0051053894   1.03442        0.0045850158 
    949000   1.0454451      0.0039358296   1.033829       0            
    950000   1.0772585      0.0041784766   1.0609095     -0.0043794742 
    951000   0.9606299      0.0035505836   0.94760868    -0.0023475511 
    952000   1.0673463      0.0040403184   1.0554869      0            
    953000   1.0081508      0.0040495299   0.99690804    -4.1103266e-05
    954000   1.0293795      0.0047088721   1.0180545      0.00011254344
    955000   1.025729       0.0037249172   1.0129289     -0.0014031281 
    956000   0.94476377     0.0041357947   0.93199938    -0.0022670205 
    957000   0.9800732      0.0032283614   0.96885152    -0.00033197877
    958000   0.94928907     0.0038956573   0.94173321     0.0029918005 
    959000   1.0054187      0.004072991    0.99040431    -0.0038430314 
    960000   1.0151565      0.0037335118   1.0056067      0.0017296948 
    961000   1.0269213      0.0042074599   1.0162638      0.00075279718
    962000   1.0099622      0.0036484374   0.99443175    -0.0043086839 
    963000   1.0143347      0.0036443915   1.0009172     -0.0021471328 
    964000   1.0441373      0.004613688    1.0325104     -2.5371902e-05
    965000   1.0307605      0.0037410617   1.0193076      0            
    966000   1.0572758      0.0052401291   1.0455287      4.0482212e-07
    967000   1.0194005      0.0043252734   1.0072802     -0.00079363814
    968000   0.98410082     0.0029298928   0.97316636     0            
    969000   1.0413764      0.0046832242   1.0263997     -0.0034057988 
    970000   1.1446598      0.0043497267   1.1319413      0            
    971000   1.0509754      0.0044881976   1.0377325     -0.001565394  
    972000   0.96071768     0.0041981886   0.94762892    -0.0024141207 
    973000   1.1035397      0.0042322721   1.0899227     -0.0013554207 
    974000   1.0322295      0.0042935629   1.0203841     -0.00037620101
    975000   0.97911551     0.0033772212   0.96576902    -0.0024674245 
    976000   1.060625       0.0049985477   1.0482595     -0.00058082068
    977000   0.96777331     0.0032919469   0.95683433    -0.00018594718
    978000   0.97309012     0.0042209515   0.96227801     0            
    979000   0.95151286     0.0035737617   0.94015698    -0.00078351874
    980000   0.97144651     0.0049293775   0.96065266     0            
    981000   0.87628527     0.0036240896   0.86793961     0.0013908412 
    982000   1.073265       0.004496369    1.0613399      0            
    983000   1.000791       0.0037639632   0.9896711      0            
    984000   1.0073799      0.0046032715   0.99381005    -0.0023767846 
    985000   1.0520117      0.00414596     1.0408569      0.00053422039
    986000   1.0655217      0.0037764824   1.049836      -0.0038465923 
    987000   1.0099262      0.0049299048   0.99673721    -0.001967537  
    988000   0.99490363     0.0034681435   0.98215514    -0.0016940028 
    989000   1.0117738      0.0052232898   0.99926884    -0.001263067  
    990000   1.0441021      0.0037440854   1.0322082     -0.00029273611
    991000   0.89110856     0.0038120296   0.88120735     0            
    992000   0.97739441     0.0036078529   0.96428662    -0.0022478567 
    993000   1.0260475      0.0046506986   1.0134937     -0.0011532846 
    994000   1.0143102      0.00449565     1.0030401      0            
    995000   1.0405475      0.004582592    1.0289859      0            
    996000   1.0344073      0.0038898349   1.0204462     -0.0024676591 
    997000   1.0125122      0.0034815639   1.0008939     -0.00036813894
    998000   1.0472601      0.0040940171   1.0332621     -0.0023618195 
    999000   1.0327116      0.0043459556   1.0190168     -0.0022202576 
   1000000   1.0177313      0.0039223619   1.0045783     -0.001844946  
Loop time of 18.652 on 1 procs for 1000000 steps with 405 atoms

Performance: 46322155.139 tau/day, 53613.605 timesteps/s
98.2% CPU use with 1 MPI tasks x no OpenMP threads

MPI task timing breakdown:
Section |  min time  |  avg time  |  max time  |%varavg| %total
---------------------------------------------------------------
Pair    | 0.86885    | 0.86885    | 0.86885    |   0.0 |  4.66
Bond    | 0.045936   | 0.045936   | 0.045936   |   0.0 |  0.25
Neigh   | 3.6032     | 3.6032     | 3.6032     |   0.0 | 19.32
Comm    | 0.99944    | 0.99944    | 0.99944    |   0.0 |  5.36
Output  | 0.37311    | 0.37311    | 0.37311    |   0.0 |  2.00
Modify  | 11.299     | 11.299     | 11.299     |   0.0 | 60.58
Other   |            | 1.463      |            |       |  7.84

Nlocal:            405 ave         405 max         405 min
Histogram: 1 0 0 0 0 0 0 0 0 0
Nghost:             62 ave          62 max          62 min
Histogram: 1 0 0 0 0 0 0 0 0 0
Neighs:              3 ave           3 max           3 min
Histogram: 1 0 0 0 0 0 0 0 0 0

Total # of neighbors = 3
Ave neighs/atom = 0.0074074074
Ave special neighs/atom = 0
Neighbor list builds = 212488
Dangerous builds = 0
Total wall time: 0:00:18
