fix fLANG all langevin 1.0 1.0 1.0 100
neigh_modify exclude molecule/intra all
fix rigidNVE linked_vesicle rigid/nve molecule
  1 rigid bodies with 5 atoms
fix NVE synapsin nve 1.0 1.0 1.0

    ##======================================##
    ## Output
    ##======================================##

thermo 1000
thermo_style custom step temp press etotal epair
thermo_modify flush yes
timestep 0.01

    ##======================================##
    ## Equilibration before output
    ##======================================##


    ##======================================##
    ## Run with output
    ##======================================##

fix enforce_2d all enforce2d
dump 2 all custom 1000 Results_eps_attr7_eps_rep1_range2_attr_with_repFalse_n_synapsin400_n_vesicles1/Movie_2d_eps_attr7_eps_rep1_range2_attr_with_repFalse_n_synapsin400_n_vesicles1.xyz id type mol x y z
run 1000000
Generated 0 of 3 mixed pair_coeff terms from geometric mixing rule
Neighbor list info ...
  update every 1 steps, delay 1 steps, check yes
  max neighbors/atom: 2000, page size: 100000
  master list distance cutoff = 11.52462
  ghost atom cutoff = 11.52462
  binsize = 5.7623102, bins = 55 55 1
  1 neighbor lists, perpetual/occasional/extra = 1 0 0
  (1) pair cosine/squared, perpetual
      attributes: half, newton on
      pair build: half/bin/newton
      stencil: half/bin/2d
      bin: standard
Per MPI rank memory allocation (min/avg/max) = 8.526 | 8.526 | 8.526 Mbytes
   Step          Temp          Press          TotEng         E_pair    
         0   0.99441908    -0.013071225    0.98336998     0            
      1000   1.052877       0.0040548885   1.0411809      2.5044906e-06
      2000   0.97902644     0.0030040622   0.96849889     0.00035052091
      3000   1.0601207      0.0035583022   1.0483416      0            
      4000   1.0466423      0.0043625821   1.0350129      0            
      5000   1.0005436      0.0035020426   0.98945454     2.8061539e-05
      6000   0.97028404     0.0030784247   0.95950311     0            
      7000   0.9429228      0.0035389451   0.9342467      0.001800821  
      8000   1.070792       0.0042930144   1.0588943      0            
      9000   1.099818       0.0040939823   1.0875978      0            
     10000   1.0665449      0.0046466632   1.0459628     -0.0087316295 
     11000   0.96554373     0.0038066863   0.94076103    -0.014054432  
     12000   0.93266649     0.003977364    0.90575636    -0.016547169  
     13000   0.96704306     0.003204815    0.94130429    -0.014993845  
     14000   1.0529427      0.0052796005   1.0095234     -0.03172      
     15000   0.96166565     0.0046328611   0.92054798    -0.030432499  
     16000   0.96384475     0.0044826825   0.92250833    -0.030627034  
     17000   1.0067732      0.0048068059   0.96331358    -0.032273286  
     18000   1.078525       0.0034869417   1.039984      -0.026557327  
     19000   0.98239346     0.0043427076   0.94592611    -0.025551867  
     20000   1.0022959      0.0040807679   0.95860164    -0.032557627  
     21000   0.94782386     0.004890909    0.91391258    -0.023379901  
     22000   0.8981227      0.0030391044   0.85794336    -0.030200207  
     23000   0.90913875     0.0032337405   0.86566696    -0.033370253  
     24000   0.94607392     0.0039717467   0.90195648    -0.03360551   
     25000   0.95371764     0.0038529467   0.9104902     -0.03263057   
     26000   0.96426246     0.0041874708   0.90896172    -0.044586708  
     27000   1.0087859      0.0041142832   0.95337355    -0.044203585  
     28000   1.0269248      0.0050865433   0.96595953    -0.049555021  
     29000   1.0392979      0.0052264358   0.98793875    -0.039811375  
     30000   0.98455727     0.0042986435   0.9370414     -0.03657634   
     31000   0.98534556     0.0052563025   0.92861329    -0.045783988  
     32000   1.0404584      0.0047392832   0.96621023    -0.062687474  
     33000   1.0293361      0.0040454228   0.95946822    -0.058430784  
     34000   0.93286654     0.0038910743   0.85789467    -0.064606683  
     35000   1.0474933      0.0047404246   0.9722263     -0.063628231  
     36000   0.988223       0.0039643805   0.9098228     -0.067419947  
     37000   1.0106447      0.0038897281   0.93412773    -0.065287616  
     38000   0.99634854     0.0040570774   0.9273178     -0.057960193  
     39000   0.90532936     0.0036035714   0.8329535     -0.062316638  
     40000   1.0477763      0.0030752052   0.96116355    -0.074970805  
     41000   0.94597412     0.0054662066   0.85399508    -0.081468222  
     42000   1.0251265      0.0035463439   0.94371818    -0.070018     
     43000   1.0085296      0.004010501    0.9213754     -0.075948323  
     44000   1.0548869      0.0041605611   0.96971302    -0.073452885  
     45000   1.022732       0.0051625287   0.93328013    -0.078088183  
     46000   1.0411715      0.0027338065   0.94662122    -0.082981715  
     47000   0.99459344     0.0036691507   0.90358519    -0.079957211  
     48000   1.057715       0.0038704273   0.97275331    -0.073209267  
     49000   1.0175608      0.0047758459   0.93726734    -0.068987281  
     50000   0.96673824     0.0028609357   0.87762371    -0.078372993  
     51000   1.0134947      0.0026810861   0.92762701    -0.074606671  
     52000   1.0926694      0.0048035843   1.0063726     -0.074156035  
     53000   1.0326877      0.0036595718   0.94315467    -0.07805869   
     54000   1.0491382      0.0039494766   0.94819011    -0.089291042  
     55000   0.99632767     0.0037140108   0.90455102    -0.080706343  
     56000   1.0575481      0.0040913746   0.95276382    -0.09303371   
     57000   0.99617516     0.0036960816   0.88997464    -0.095131904  
     58000   0.97956293     0.0047081669   0.87632039    -0.092358512  
     59000   1.0274144      0.0052427579   0.92742379    -0.088574879  
     60000   1.0079356      0.0035542014   0.91421102    -0.08252529   
     61000   1.0362229      0.0043587401   0.94671346    -0.077995801  
     62000   0.99296105     0.0038647032   0.88602893    -0.095899224  
     63000   1.0754547      0.00399832     0.96406471    -0.099440451  
     64000   0.96430817     0.0041651958   0.8630176     -0.090576033  
     65000   1.0554002      0.0037221524   0.95065444    -0.093019138  
     66000   1.0372734      0.0051748564   0.93297136    -0.092776744  
     67000   0.98968687     0.0050862088   0.90302125    -0.075669101  
     68000   1.0124327      0.0042742933   0.9050808     -0.096102608  
     69000   0.96553742     0.0036498382   0.85938438    -0.095424839  
     70000   1.0410871      0.0038460132   0.93642877    -0.093090725  
     71000   0.97874521     0.0026653229   0.8783898     -0.089480461  
     72000   1.04698        0.0037440679   0.94442866    -0.090918251  
     73000   0.95748307     0.0038529844   0.84980183    -0.097042544  
     74000   0.93023554     0.0031275926   0.84219549    -0.077704093  
     75000   1.0201862      0.0049593286   0.92899047    -0.079860378  
     76000   1.0628837      0.0048734367   0.97105754    -0.080016331  
     77000   1.0366368      0.0044855687   0.95163069    -0.073487948  
     78000   1.002105       0.0030421952   0.91292977    -0.078040733  
     79000   1.06435        0.0046904896   0.97216114    -0.080362733  
     80000   1.0785891      0.0038130458   0.97636783    -0.090236918  
     81000   0.98495919     0.0039864662   0.88971214    -0.084303058  
     82000   1.0233893      0.0037254976   0.91721899    -0.094799331  
     83000   0.99436279     0.0040463794   0.89358277    -0.089731547  
     84000   0.94040264     0.0028616231   0.84577147    -0.084182248  
     85000   0.95409527     0.00344893     0.85281549    -0.090678725  
     86000   0.99403738     0.0041564714   0.90293587    -0.080056654  
     87000   0.9758672      0.0035232493   0.86068195    -0.10434227   
     88000   1.0088347      0.0036615354   0.89563106    -0.10199434   
     89000   0.96575157     0.0045130142   0.84686866    -0.10815234   
     90000   1.0028479      0.0032844744   0.87230129    -0.11940381   
     91000   0.99332914     0.0037560523   0.88043325    -0.1018589    
     92000   1.0243266      0.0039402445   0.90527686    -0.10766836   
     93000   1.0567184      0.0045026986   0.94301889    -0.10195815   
     94000   1.0254521      0.004669035    0.90142219    -0.11263604   
     95000   1.0233456      0.003829748    0.89373709    -0.11823798   
     96000   1.0516531      0.0044263669   0.9241025     -0.11586555   
     97000   0.9158064      0.0032704681   0.79562713    -0.11000364   
     98000   0.98338085     0.004001248    0.83548742    -0.13696697   
     99000   1.0000203      0.0020291188   0.85882174    -0.1300872    
    100000   0.98803827     0.0040041334   0.83486856    -0.14219151   
    101000   1.0910693      0.0039005942   0.96551444    -0.11343184   
    102000   0.97232305     0.0046144447   0.82241259    -0.13910687   
    103000   1.076091       0.0037846366   0.93052879    -0.13360563   
    104000   0.95559175     0.0050920585   0.81359839    -0.13137567   
    105000   0.99407156     0.0032061517   0.86539953    -0.11762679   
    106000   0.97229235     0.0033853855   0.82640441    -0.1350847    
    107000   1.0107139      0.0044298319   0.8545289     -0.14495487   
    108000   0.96992157     0.0037626091   0.80870625    -0.15043841   
    109000   0.99963639     0.0057820746   0.84070872    -0.1478206    
    110000   1.0359318      0.0037361567   0.88782874    -0.13659267   
    111000   1.0115591      0.004449359    0.87465344    -0.1256661    
    112000   1.0109706      0.0046202658   0.88113807    -0.11859953   
    113000   1.0333204      0.0040956526   0.88228349    -0.13955556   
    114000   1.0222738      0.0033438426   0.85841368    -0.15250154   
    115000   1.1195546      0.0047885087   0.94802656    -0.15908856   
    116000   1.0297349      0.0039657055   0.85072966    -0.1675637    
    117000   1.0502125      0.0042285115   0.8752852     -0.16325829   
    118000   1.0903087      0.0045584692   0.92656419    -0.15163002   
    119000   1.0486408      0.0043460885   0.89529907    -0.1416902    
    120000   1.02802        0.0055662515   0.87157967    -0.14501785   
    121000   1.0726891      0.0039298611   0.91331195    -0.14745839   
    122000   0.98821628     0.0038331437   0.83155944    -0.14567666   
    123000   1.0405201      0.0044094266   0.88440382    -0.14455496   
    124000   0.96484603     0.0049860961   0.8141659     -0.13995963   
    125000   0.97615999     0.0037036795   0.85753134    -0.10778243   
    126000   1.0097229      0.0037291191   0.88441162    -0.11409214   
    127000   1.0168528      0.0042969034   0.86602599    -0.13952848   
    128000   1.0521682      0.0039516625   0.9159479     -0.1245295    
    129000   1.0034567      0.0044746238   0.86207803    -0.13022919   
    130000   1.0083018      0.0041061028   0.8733317     -0.12376676   
    131000   1.0118869      0.0046167573   0.88704705    -0.11359664   
    132000   0.9356717      0.0032449915   0.79987567    -0.12539969   
    133000   0.9876042      0.0043147918   0.84055142    -0.1360794    
    134000   1.0498238      0.0039291782   0.92312273    -0.11503636   
    135000   1.0644059      0.0041687391   0.92352291    -0.12905629   
    136000   0.90625711     0.0032740031   0.76865353    -0.12753405   
    137000   0.97406851     0.0036294377   0.84156565    -0.12167988   
    138000   0.9564112      0.003949292    0.80297459    -0.14280982   
    139000   0.95738623     0.0032950748   0.80126533    -0.14548328   
    140000   0.9929891      0.0037122496   0.83562225    -0.14633365   
    141000   0.9852373      0.002940633    0.83160754    -0.14268268   
    142000   1.0482377      0.0039543475   0.88595459    -0.150636     
    143000   0.93209623     0.004242792    0.76629801    -0.1554416    
    144000   1.0589264      0.0032330118   0.88912369    -0.15803682   
    145000   0.90551929     0.0036651028   0.75553449    -0.13992347   
    146000   0.946552       0.0031510374   0.76323457    -0.17280019   
    147000   1.0261775      0.0042069393   0.85088693    -0.16388858   
    148000   0.97934948     0.0031475462   0.79566587    -0.17280195   
    149000   0.93142205     0.0029653554   0.74933807    -0.17173485   
    150000   1.0121169      0.0050855749   0.8231281     -0.17774303   
    151000   0.978996       0.0043438156   0.78566729    -0.18245098   
    152000   1.0446883      0.0047472956   0.85359033    -0.17949035   
    153000   0.99718033     0.0046216873   0.83509414    -0.15100641   
    154000   1.0352463      0.0040478217   0.8598892     -0.16385441   
    155000   1.0979662      0.0038639798   0.92270146    -0.16306507   
    156000   1.0719055      0.0039200233   0.91937868    -0.14061673   
    157000   0.9560374      0.0030157367   0.79460948    -0.15080528   
    158000   1.0463933      0.0035207613   0.87074221    -0.16402447   
    159000   0.97437659     0.0035653336   0.79321662    -0.17033356   
    160000   0.99901697     0.003433559    0.83566195    -0.15225483   
    161000   0.95371118     0.0031326024   0.79632783    -0.14678656   
    162000   1.0557064      0.0049102565   0.90225258    -0.14172374   
    163000   1.0182074      0.0044043452   0.86024471    -0.14664928   
    164000   1.0212438      0.0042949349   0.86374202    -0.14615463   
    165000   1.0519181      0.0045866265   0.92314597    -0.11708416   
    166000   0.95318909     0.0036996841   0.77729004    -0.16530806   
    167000   0.99900293     0.0033810881   0.82950686    -0.15839604   
    168000   1.0862129      0.0028224669   0.92793135    -0.14621248   
    169000   1.0338125      0.003658403    0.86627694    -0.15604873   
    170000   0.9794969      0.0044987969   0.81059019    -0.15802341   
    171000   1.014592       0.0037947101   0.82111613    -0.18220257   
    172000   1.0726188      0.0050409947   0.87675814    -0.18394266   
    173000   1.0078285      0.0039152792   0.81596011    -0.18067034   
    174000   1.0641155      0.004531658    0.90715522    -0.14513678   
    175000   0.97793142     0.0036286179   0.82407961    -0.1429859    
    176000   0.94349219     0.0031542212   0.76875541    -0.16425354   
    177000   1.0139924      0.0036179848   0.86695454    -0.13577129   
    178000   0.97309998     0.0029635449   0.83174722    -0.13054053   
    179000   1.0087213      0.0050065185   0.85939546    -0.13811782   
    180000   0.97009385     0.0038946491   0.81984321    -0.13947182   
    181000   1.0010054      0.0046516075   0.86627125    -0.12361185   
    182000   0.9909386      0.0025779341   0.85895102    -0.12097714   
    183000   1.016693       0.0042045996   0.86886726    -0.13652914   
    184000   1.0665163      0.0047088658   0.92173967    -0.13292644   
    185000   1.0239722      0.0050140463   0.90628475    -0.10631      
    186000   0.9836149      0.0048125421   0.82356796    -0.14911789   
    187000   0.97981887     0.0044887265   0.82637055    -0.14256144   
    188000   1.0170275      0.0044394871   0.86374653    -0.14198063   
    189000   0.89767022     0.0039748037   0.71013188    -0.17756423   
    190000   1.0555586      0.0047330875   0.86758054    -0.17624958   
    191000   1.0557626      0.0037768154   0.86883853    -0.1751934    
    192000   1.0417321      0.0029633224   0.86965083    -0.16050647   
    193000   1.0165795      0.0034330991   0.82830651    -0.1769777    
    194000   0.95841072     0.0035605548   0.78767639    -0.16008531   
    195000   1.0823888      0.0046843931   0.89765519    -0.17270711   
    196000   1.0268247      0.0042252188   0.86105521    -0.15436033   
    197000   0.99907819     0.0040342176   0.80227179    -0.18570553   
    198000   0.94118594     0.0048123095   0.74798823    -0.18274008   
    199000   0.94736547     0.0032860136   0.75950455    -0.17733464   
    200000   0.99721147     0.0041289902   0.8070341     -0.17909724   
    201000   1.0078153      0.0037537378   0.83076635    -0.16585098   
    202000   1.0149124      0.0047950667   0.86859044    -0.13504519   
    203000   0.96977097     0.0046549042   0.80029921    -0.15869654   
    204000   0.95055316     0.0033424923   0.78656447    -0.15342698   
    205000   1.0030606      0.0037801689   0.81956875    -0.17234672   
    206000   0.97505563     0.0051186192   0.79665818    -0.1675635    
    207000   1.0195439      0.0050909241   0.86753614    -0.14067954   
    208000   0.9570631      0.0044279744   0.80594491    -0.14048416   
    209000   1.0062741      0.004515397    0.87820901    -0.11688424   
    210000   1.0116523      0.0040532635   0.88466115    -0.11575061   
    211000   1.051954       0.004440126    0.90545144    -0.13481415   
    212000   0.98422439     0.0036963539   0.83506592    -0.13822264   
    213000   0.95271807     0.0034982637   0.81010597    -0.13202634   
    214000   1.0207295      0.0039037516   0.8872792     -0.12210887   
    215000   0.98682312     0.003754729    0.84881714    -0.12704128   
    216000   0.9745761      0.0035683006   0.84910294    -0.11464454   
    217000   0.94354726     0.0033149164   0.81304598    -0.12001742   
    218000   1.0015494      0.0032280685   0.8773482     -0.11307289   
    219000   1.0096459      0.004011643    0.86777669    -0.13065097   
    220000   1.0462803      0.0052732651   0.90481037    -0.1298446    
    221000   1.090573       0.004385286    0.95931366    -0.11914188   
    222000   1.0286462      0.0039002855   0.8973437     -0.11987306   
    223000   0.94473007     0.0038825133   0.79942861    -0.13480446   
    224000   1.0130528      0.0040046484   0.87845539    -0.12334126   
    225000   1.0124233      0.0040963977   0.87232614    -0.12884803   
    226000   0.95077695     0.0040638111   0.83949546    -0.1007173    
    227000   1.0470153      0.0043619383   0.89901372    -0.13636808   
    228000   1.0197948      0.0045270514   0.8733277     -0.13513602   
    229000   1.0917942      0.0047265194   0.95205071    -0.12761249   
    230000   0.9696983      0.00351254     0.83877914    -0.12014473   
    231000   1.0418573      0.0042415733   0.88456884    -0.14571231   
    232000   1.0507928      0.0043777589   0.91325522    -0.12586212   
    233000   1.0100867      0.0032622273   0.86757698    -0.13128652   
    234000   0.93247319     0.004119461    0.79441675    -0.12769563   
    235000   1.0046871      0.0039795862   0.86426766    -0.12925624   
    236000   1.0658271      0.0038363753   0.92048506    -0.13349954   
    237000   1.0360577      0.0045131568   0.89877659    -0.12576933   
    238000   0.98342985     0.0033521496   0.83470173    -0.13780112   
    239000   0.91389972     0.0045623945   0.75203408    -0.15171119   
    240000   0.98292581     0.0033888172   0.82591157    -0.14609284   
    241000   0.91966387     0.0030760556   0.74490741    -0.16453797   
    242000   0.96408292     0.0039595301   0.79383969    -0.15953119   
    243000   0.93493058     0.0030619691   0.78581164    -0.13873083   
    244000   0.94257725     0.0044543115   0.76728076    -0.16482341   
    245000   0.94080777     0.0034771491   0.76704606    -0.16330829   
    246000   0.96048936     0.0034341613   0.77351871    -0.17629854   
    247000   1.0997379      0.0042498083   0.92044792    -0.16707062   
    248000   0.97427968     0.003506463    0.80156912    -0.16188523   
    249000   1.0808745      0.0055649925   0.91053298    -0.15833185   
    250000   0.95994688     0.005140863    0.80107946    -0.14820134   
    251000   0.92180712     0.0044914173   0.7739789     -0.13758592   
    252000   0.95184812     0.003760997    0.77384947    -0.16742256   
    253000   0.98763198     0.0048555843   0.82946276    -0.14719554   
    254000   1.0322671      0.0046501958   0.8685901     -0.15220733   
    255000   0.96993959     0.0033742511   0.81404115    -0.14512133   
    256000   0.9484847      0.0035906712   0.78981153    -0.14813445   
    257000   1.0042548      0.0036612728   0.85259866    -0.14049773   
    258000   1.0308647      0.0041797834   0.87432505    -0.14508558   
    259000   1.0414339      0.0043571523   0.86917453    -0.16068786   
    260000   0.89581573     0.0037421697   0.72239384    -0.16346838   
    261000   1.0015164      0.0043486188   0.833277      -0.15711147   
    262000   0.94367306     0.0040361075   0.75692359    -0.17626422   
    263000   0.94983443     0.003673314    0.76144742    -0.1778333    
    264000   0.98558366     0.0035794932   0.8055089     -0.16912383   
    265000   1.0416028      0.0041431825   0.85037749    -0.17965197   
    266000   0.98335997     0.0044667703   0.78620376    -0.18622999   
    267000   0.93119589     0.0039632881   0.76217773    -0.15867154   
    268000   0.97630868     0.0039292471   0.79849729    -0.16696352   
    269000   0.97250286     0.0051823219   0.78075506    -0.18094221   
    270000   1.0675079      0.0042957241   0.88628051    -0.16936621   
    271000   1.0173137      0.0047277901   0.8166594     -0.18935079   
    272000   0.94574425     0.0042091964   0.72700949    -0.20822649   
    273000   1.0306393      0.0033773677   0.81690417    -0.20228361   
    274000   1.0067167      0.0055906579   0.79287768    -0.20265324   
    275000   0.98353094     0.0043553254   0.78334691    -0.18925591   
    276000   1.0438559      0.0048890598   0.85502608    -0.17723143   
    277000   0.88439253     0.0033505335   0.68052889    -0.19403706   
    278000   1.0388875      0.0035006656   0.84494922    -0.18239509   
    279000   0.96729617     0.00270488     0.7806821     -0.17586633   
    280000   0.99990339     0.00435376     0.81714998    -0.17164338   
    281000   1.0756776      0.0035470847   0.88758697    -0.17613864   
    282000   1.0389545      0.0038328743   0.85245896    -0.17495156   
    283000   0.91822345     0.0028446324   0.73225309    -0.17576788   
    284000   1.0264004      0.0050724724   0.83231874    -0.18267725   
    285000   1.0371675      0.0048575204   0.83575754    -0.18988584   
    286000   1.0228501      0.0038023926   0.80383263    -0.20765242   
    287000   1.0085298      0.0035763068   0.77712338    -0.22020052   
    288000   0.91910035     0.0023574164   0.65890603    -0.2499821    
    289000   0.954624       0.0033467661   0.68344939    -0.26056768   
    290000   1.0009175      0.00413221     0.74253218    -0.24726398   
    291000   0.95429255     0.0046775849   0.64419902    -0.29949028   
    292000   0.99180474     0.0037791956   0.73433253    -0.24645216   
    293000   0.98546377     0.0021162789   0.74067158    -0.23384259   
    294000   0.97734457     0.0036369671   0.74178199    -0.2247032    
    295000   1.0375037      0.0036778427   0.79194855    -0.23402736   
    296000   0.90210658     0.0026305004   0.63363885    -0.25844432   
    297000   1.0045748      0.004331096    0.70182683    -0.29158602   
    298000   1.060071       0.0043375235   0.81771438    -0.23057805   
    299000   0.95088611     0.0029432995   0.70644285    -0.23387786   
    300000   0.97970261     0.0035019134   0.71901429    -0.24980274   
    301000   1.0253307      0.0046554842   0.76468049    -0.24925762   
    302000   0.96150319     0.0043258844   0.70878258    -0.24203724   
    303000   1.0054282      0.0036660931   0.7426001     -0.25165671   
    304000   0.98100132     0.002482834    0.79280582    -0.17729548   
    305000   1.004732       0.0042819065   0.79240995    -0.20115832   
    306000   0.98621552     0.0036953174   0.73586828    -0.23938929   
    307000   1.015557       0.0051310366   0.76524472    -0.23902827   
    308000   0.9692388      0.0038081475   0.72012908    -0.2383404    
    309000   0.91919348     0.0019579263   0.64648529    -0.26249493   
    310000   0.97611081     0.0035288488   0.70888253    -0.25638261   
    311000   0.99498982     0.0047630809   0.74106023    -0.24287415   
    312000   1.0219271      0.003491842    0.77095537    -0.23961703   
    313000   1.0146776      0.0043713766   0.79742436    -0.20597905   
    314000   0.9036169      0.0030437967   0.66664667    -0.22693004   
    315000   1.0732804      0.0056835965   0.85927332    -0.20208174   
    316000   0.96713545     0.0031215257   0.74667663    -0.20971287   
    317000   0.95133609     0.0039995917   0.72026812    -0.22049757   
    318000   1.048002       0.0035217423   0.80974468    -0.22661287   
    319000   1.0543894      0.0041837044   0.85257229    -0.19010164   
    320000   0.99770048     0.0035004764   0.80225423    -0.18436069   
    321000   0.93636477     0.0038602374   0.73226377    -0.19369695   
    322000   1.0189139      0.0040563028   0.80740289    -0.20018972   
    323000   1.0747393      0.0038844872   0.86869352    -0.19410426   
    324000   0.9250625      0.0027128244   0.70170639    -0.21307764   
    325000   0.98729397     0.0037288286   0.77985483    -0.19646921   
    326000   1.0750657      0.004133689    0.86274444    -0.20037604   
    327000   1.0244979      0.0043231313   0.81355252    -0.19956212   
    328000   1.0163788      0.0035363139   0.79797469    -0.20711098   
    329000   0.99027542     0.0035228679   0.78528271    -0.19398965   
    330000   1.0561612      0.0044423652   0.87037339    -0.17405269   
    331000   1.0152456      0.0046658053   0.80308402    -0.20088107   
    332000   1.0825086      0.0044240867   0.86685845    -0.2036223    
    333000   1.015214       0.0038268486   0.80276949    -0.20116432   
    334000   0.983515       0.003535065    0.75850131    -0.21408574   
    335000   0.94088912     0.0026258401   0.74572626    -0.18470853   
    336000   1.022415       0.0038867898   0.84956437    -0.16149049   
    337000   1.0614712      0.0047257326   0.89442219    -0.15525485   
    338000   1.0443617      0.0046510572   0.86182114    -0.17093656   
    339000   1.0554664      0.005127078    0.85439922    -0.18933976   
    340000   1.0288182      0.0033538576   0.83653664    -0.18085025   
    341000   1.0137543      0.0038817522   0.80070884    -0.20178157   
    342000   0.96133383     0.0042663941   0.74710456    -0.20354778   
    343000   1.0714859      0.0039252099   0.88838477    -0.1711957    
    344000   1.1213878      0.0053376116   0.93370659    -0.17522133   
    345000   0.93506043     0.0047408119   0.75285819    -0.17181268   
    346000   1.0127322      0.003402811    0.82285447    -0.17862515   
    347000   1.0953365      0.004405819    0.8930515     -0.19011458   
    348000   1.0068949      0.003988983    0.82851666    -0.16719047   
    349000   1.0504971      0.005246316    0.86392528    -0.17489962   
    350000   0.91225301     0.004300743    0.75337815    -0.14873872   
    351000   0.96424253     0.0051579066   0.78207107    -0.17145766   
    352000   1.0749169      0.0030273579   0.88742914    -0.17554425   
    353000   1.0163131      0.0041488385   0.82862114    -0.1763996    
    354000   0.9346574      0.004149228    0.75431192    -0.16996039   
    355000   1.0105472      0.003962786    0.82359586    -0.17572302   
    356000   0.99165031     0.0050272838   0.82329468    -0.1573373    
    357000   0.99134709     0.0042474072   0.81179311    -0.16853901   
    358000   0.95835625     0.0043171541   0.76741229    -0.18029555   
    359000   0.98148697     0.0039525962   0.80201945    -0.16856211   
    360000   0.99082743     0.0040430541   0.81156394    -0.1682543    
    361000   1.0525676      0.0036237242   0.86575092    -0.1751215    
    362000   1.0636175      0.0049836085   0.88629838    -0.16550113   
    363000   0.98477412     0.0041379614   0.78656896    -0.18726322   
    364000   0.93861716     0.0027699822   0.74355353    -0.18463455   
    365000   0.99017861     0.0047515484   0.82978369    -0.14939293   
    366000   1.0174774      0.0034803947   0.83732153    -0.16885056   
    367000   0.99722599     0.0046761642   0.83269162    -0.15345408   
    368000   0.93408571     0.0038423484   0.7528778     -0.17082917   
    369000   0.88801598     0.0035246271   0.7206876     -0.15746153   
    370000   0.95613287     0.0044651281   0.79989363    -0.14561554   
    371000   1.0295992      0.0048963218   0.87878052    -0.13937864   
    372000   1.0568223      0.0029215938   0.85978137    -0.18529843   
    373000   0.98313926     0.0031955695   0.810398      -0.1618175    
    374000   1.0041151      0.0040907813   0.81737402    -0.17558425   
    375000   1.0499147      0.004069726    0.85355804    -0.18469094   
    376000   0.98531047     0.0045608072   0.77325562    -0.20110696   
    377000   0.95682839     0.004162983    0.7662307     -0.17996626   
    378000   1.0645916      0.0044055955   0.84148924    -0.21127362   
    379000   1.0105149      0.0045118092   0.79210722    -0.20717977   
    380000   0.95217139     0.003091641    0.74908708    -0.19250463   
    381000   1.0052091      0.0036647212   0.7881106     -0.20592954   
    382000   0.98358266     0.0032393552   0.76727813    -0.20537584   
    383000   1.0427411      0.0051374175   0.85286344    -0.17829168   
    384000   1.0377123      0.0051948504   0.82950362    -0.19667856   
    385000   0.99243923     0.0045242231   0.78048087    -0.20093126   
    386000   1.0471189      0.0039209648   0.84023858    -0.19524569   
    387000   0.93700177     0.0046377396   0.70718558    -0.21940507   
    388000   0.99345906     0.0038730449   0.77477237    -0.20764826   
    389000   0.98628483     0.0035755741   0.76262287    -0.21270324   
    390000   1.0095811      0.0028362507   0.77652522    -0.22183829   
    391000   1.0828158      0.0044963065   0.8367512     -0.23403332   
    392000   0.98718971     0.0050822087   0.76493009    -0.21129084   
    393000   1.0640316      0.0037381588   0.82672303    -0.22548602   
    394000   1.0474102      0.0047546245   0.80070609    -0.2350662    
    395000   1.013365       0.0048293645   0.77553214    -0.2265733    
    396000   0.9479285      0.0037582838   0.70693146    -0.2304645    
    397000   1.0268666      0.0039493789   0.79876812    -0.21668882   
    398000   0.96912626     0.0033689787   0.70028205    -0.25807614   
    399000   0.9190942      0.0021784753   0.67742894    -0.23145311   
    400000   1.0529072      0.0040874956   0.79609256    -0.24511566   
    401000   1.0589865      0.0047062897   0.7929808     -0.25423915   
    402000   0.96535767     0.0040066875   0.70847612    -0.24615535   
    403000   1.0230121      0.0038132031   0.75842284    -0.25322249   
    404000   0.96081307     0.0029030026   0.70966835    -0.24046902   
    405000   1.0389306      0.0043586593   0.79811167    -0.22927529   
    406000   1.0117134      0.0035770515   0.74830517    -0.25216698   
    407000   1.0007061      0.0029825201   0.74663081    -0.24295629   
    408000   0.99635182     0.0043735953   0.74892732    -0.23635393   
    409000   1.1022654      0.0051539291   0.85172772    -0.23829031   
    410000   0.98174865     0.0040977265   0.75034653    -0.2204938    
    411000   0.93566933     0.0036639504   0.71069627    -0.21457674   
    412000   0.98927141     0.0027638578   0.78507236    -0.19320714   
    413000   1.0301778      0.0041918542   0.79998306    -0.21874834   
    414000   0.99195317     0.0045006395   0.74378291    -0.23714855   
    415000   0.9698303      0.0027923896   0.71292966    -0.24612475   
    416000   1.0570884      0.0051763257   0.75505749    -0.29028552   
    417000   0.93407298     0.0026095442   0.65741545    -0.26627893   
    418000   1.0356674      0.0051376483   0.76029453    -0.26386545   
    419000   0.89541505     0.002462569    0.61502857    -0.27043743   
    420000   0.97980405     0.0045012569   0.70420682    -0.26471052   
    421000   1.0764447      0.0050648474   0.76645386    -0.29803035   
    422000   1.0203916      0.0023245431   0.75397892    -0.25507497   
    423000   0.96207532     0.0035165432   0.66015464    -0.29123096   
    424000   1.0163716      0.0038873564   0.7142897     -0.29078887   
    425000   1.0182367      0.004607592    0.75135054    -0.25557242   
    426000   1.0021743      0.0037968819   0.75390154    -0.23713746   
    427000   0.91033543     0.0041617197   0.69521605    -0.20500455   
    428000   1.0558589      0.0040587485   0.80029419    -0.24383292   
    429000   0.91101554     0.0039380666   0.69373772    -0.20715543   
    430000   0.99608759     0.0034933702   0.7344285     -0.25059145   
    431000   0.97807455     0.0034928274   0.73650988    -0.23069717   
    432000   1.0840999      0.0038295509   0.83746761    -0.23458671   
    433000   0.89402772     0.0031824101   0.63373203    -0.25036204   
    434000   0.95625285     0.0029616458   0.73904074    -0.20658708   
    435000   1.0107517      0.0037617711   0.79523337    -0.20428772   
    436000   0.98563194     0.0039375305   0.75060045    -0.22408002   
    437000   1.0370719      0.0041592842   0.81326083    -0.21228806   
    438000   0.91602216     0.0053894206   0.67565525    -0.23018888   
    439000   1.0429189      0.0040015051   0.80544236    -0.22588854   
    440000   1.0070593      0.0039881261   0.74267556    -0.25319423   
    441000   0.9973669      0.004239928    0.75988601    -0.22639904   
    442000   0.97329797     0.0030596001   0.72693457    -0.23554897   
    443000   1.0707773      0.0044235684   0.8457005     -0.21317925   
    444000   0.97972504     0.0044402706   0.76141736    -0.20742185   
    445000   1.0167638      0.0041178061   0.77271451    -0.23275195   
    446000   1.0047112      0.0043523256   0.77924275    -0.21430501   
    447000   1.088361       0.0052618663   0.85347798    -0.22279009   
    448000   0.94732613     0.0048691212   0.72367546    -0.21312483   
    449000   0.90291685     0.0027687671   0.67172389    -0.22116055   
    450000   1.0251221      0.0051726726   0.77442014    -0.23931174   
    451000   0.9370885      0.0035851061   0.68785023    -0.23882617   
    452000   1.0323326      0.0046752364   0.80000477    -0.22085746   
    453000   1.0091594      0.0044659952   0.77997332    -0.21797321   
    454000   1.0171792      0.0033380434   0.79557236    -0.21030483   
    455000   0.9597484      0.0031536735   0.7150494     -0.23403512   
    456000   0.96906626     0.0028945891   0.71345412    -0.24484474   
    457000   1.1051873      0.0043145643   0.84931205    -0.24359542   
    458000   1.020983       0.0040105515   0.74575433    -0.26388443   
    459000   0.98815248     0.0050107545   0.716647      -0.26052601   
    460000   0.92459437     0.0027816638   0.67944019    -0.23488091   
    461000   1.0807043      0.0059153241   0.84081594    -0.22788053   
    462000   0.95365872     0.0031381547   0.71301022    -0.23005229   
    463000   0.97000667     0.004061478    0.71826748    -0.24096134   
    464000   0.90771049     0.0045459956   0.66159803    -0.23602679   
    465000   0.98351594     0.0038752974   0.75057503    -0.22201295   
    466000   0.93858353     0.003821175    0.68627518    -0.24187965   
    467000   1.0029773      0.0039044384   0.78232233    -0.20951074   
    468000   0.99967637     0.0045888177   0.75964534    -0.22892352   
    469000   1.0764655      0.0046680511   0.83228022    -0.23222457   
    470000   0.99221633     0.0040159826   0.74721959    -0.23397211   
    471000   0.97008937     0.0031024543   0.70862799    -0.2506826    
    472000   1.0395155      0.0029235727   0.80149715    -0.22646819   
    473000   1.0832675      0.0041375475   0.85027485    -0.22095633   
    474000   1.0524615      0.0050187584   0.81623084    -0.22453663   
    475000   1.0269824      0.0042707332   0.78041809    -0.23515342   
    476000   1.018982       0.0037838695   0.79365675    -0.21400327   
    477000   1.0642027      0.0045737156   0.80498236    -0.24739583   
    478000   0.9252872      0.0035335826   0.70618483    -0.2088214    
    479000   1.0231427      0.0054314646   0.7927111     -0.21906334   
    480000   1.0088147      0.0034014267   0.79856796    -0.19903767   
    481000   1.0524232      0.0046988076   0.81139661    -0.22933302   
    482000   1.1217097      0.0037969441   0.88454646    -0.22469977   
    483000   0.94299156     0.004167105    0.70731457    -0.22519931   
    484000   1.0193476      0.003170266    0.78352014    -0.22450134   
    485000   1.0062366      0.0036455971   0.77458912    -0.2204671    
    486000   0.96578294     0.0038160905   0.70636374    -0.24868829   
    487000   0.98590896     0.0050569937   0.72744504    -0.24750937   
    488000   0.94748935     0.0039468115   0.68586034    -0.25110135   
    489000   1.006571       0.003372444    0.7473478     -0.24803908   
    490000   1.0985328      0.0048156195   0.84669119    -0.2396357    
    491000   1.0143896      0.0039103616   0.76302168    -0.24009698   
    492000   0.9952918      0.0038147358   0.76678948    -0.21744352   
    493000   0.98103202     0.003714492    0.75594321    -0.21418846   
    494000   0.96757922     0.0036099528   0.77563392    -0.18119442   
    495000   0.94492567     0.0036962904   0.72077067    -0.21365582   
    496000   0.94730283     0.0045931165   0.73357044    -0.2032068    
    497000   1.0274381      0.0047073855   0.77731643    -0.23870572   
    498000   1.0129914      0.0040874236   0.78861902    -0.2131169    
    499000   1.035518       0.0040495249   0.78035769    -0.24365457   
    500000   0.99706678     0.0042278861   0.75246996    -0.2335183    
    501000   1.0791713      0.0042723569   0.84350628    -0.22367427   
    502000   1.0326748      0.0035571411   0.81490502    -0.20629559   
    503000   0.98010812     0.0048176444   0.76355754    -0.20566049   
    504000   1.0042331      0.004244677    0.76873849    -0.22433645   
    505000   0.96615206     0.0038796744   0.72121125    -0.23420579   
    506000   1.0483826      0.0041209643   0.80922327    -0.22751062   
    507000   1.0173345      0.0032936746   0.77050288    -0.23552793   
    508000   0.96112429     0.0040294718   0.72514342    -0.22530172   
    509000   1.0095877      0.0040415138   0.76945442    -0.2289156    
    510000   1.0447806      0.0036446244   0.79655243    -0.23661953   
    511000   0.98227518     0.0034089831   0.73625863    -0.23510238   
    512000   1.0704874      0.0034707429   0.83877685    -0.21981626   
    513000   1.0596698      0.0045831166   0.81987786    -0.2280178    
    514000   1.0639476      0.003488579    0.82504316    -0.22708282   
    515000   1.0202387      0.0041269431   0.79419289    -0.21470987   
    516000   1.0404313      0.003305318    0.83104714    -0.19782383   
    517000   1.0243006      0.0047279051   0.82132768    -0.19159181   
    518000   0.98727318     0.0053730071   0.77456905    -0.20173443   
    519000   0.9505674      0.0046024049   0.72977898    -0.21022656   
    520000   1.0731847      0.0034895036   0.85001862    -0.21124179   
    521000   0.92488592     0.0032345834   0.71680953    -0.19779987   
    522000   0.94237399     0.0033042038   0.72376951    -0.20813365   
    523000   1.0227278      0.0032172602   0.79739312    -0.21397105   
    524000   1.0962086      0.003101862    0.8723016     -0.21172686   
    525000   0.98456525     0.0033192889   0.74856241    -0.22506323   
    526000   0.9979071      0.0044851819   0.74549844    -0.2413208    
    527000   1.0628767      0.0032402519   0.81767861    -0.23338833   
    528000   1.0155078      0.0039767511   0.7696179     -0.23460645   
    529000   0.93890958     0.0042797383   0.71744979    -0.21102746   
    530000   0.94647682     0.0044153624   0.71533296    -0.22062745   
    531000   1.0199856      0.0033881101   0.78732144    -0.22133099   
    532000   0.97526511     0.0043424231   0.74048593    -0.2239429    
    533000   0.99994198     0.0034929412   0.77682639    -0.21200512   
    534000   0.91209621     0.0044669575   0.70703586    -0.19492594   
    535000   1.0610345      0.0048523315   0.81616835    -0.23307684   
    536000   0.97932976     0.004482513    0.72310351    -0.24534481   
    537000   1.0568417      0.0026331857   0.82683404    -0.21826498   
    538000   0.99162166     0.0037840106   0.77573581    -0.20486783   
    539000   0.97944398     0.0043368108   0.73369408    -0.23486719   
    540000   0.99226432     0.0027550933   0.75061751    -0.23062166   
    541000   1.0442031      0.004300059    0.81481275    -0.21778812   
    542000   0.99800734     0.0039640264   0.77729164    -0.20962673   
    543000   1.020017       0.0042144451   0.76569849    -0.24298497   
    544000   0.99070573     0.003435633    0.74195495    -0.23774294   
    545000   1.0065775      0.0038681158   0.75822877    -0.23716454   
    546000   0.96417495     0.004297487    0.70432217    -0.24913973   
    547000   1.0057029      0.0033817557   0.76251315    -0.23201531   
    548000   1.05355        0.0044800957   0.75518486    -0.286659     
    549000   1.0321832      0.0038550766   0.74379636    -0.27691814   
    550000   1.0960501      0.0041718003   0.79367469    -0.2901971    
    551000   0.97865162     0.0046429504   0.67471717    -0.29306054   
    552000   0.9464191      0.0031492301   0.64759741    -0.28830591   
    553000   1.0596863      0.0039898618   0.75487637    -0.29303566   
    554000   0.99204023     0.004048859    0.69930258    -0.28171498   
    555000   0.98673536     0.0041405598   0.71935198    -0.25641965   
    556000   1.0245291      0.0047555609   0.78166162    -0.23148378   
    557000   1.0725839      0.0053891938   0.81715957    -0.24350672   
    558000   0.96686284     0.003914192    0.74669537    -0.20942455   
    559000   1.0288827      0.0046555827   0.80185826    -0.21559237   
    560000   1.020641       0.0048696709   0.77880563    -0.2304949    
    561000   1.0167462      0.0035305649   0.78336659    -0.22208242   
    562000   1.0107659      0.0044636108   0.76164292    -0.23789223   
    563000   1.0340591      0.0036211996   0.79253979    -0.23002979   
    564000   1.0376751      0.0035500354   0.77628004    -0.24986531   
    565000   0.96435467     0.0030689646   0.71458809    -0.23905153   
    566000   1.0225551      0.0042640145   0.79591981    -0.21527354   
    567000   0.91740061     0.0027960581   0.69910725    -0.20810001   
    568000   0.99807285     0.0043727423   0.75452909    -0.23245406   
    569000   0.9702484      0.0031495571   0.72046283    -0.23900504   
    570000   1.023547       0.003775603    0.76824178    -0.24393251   
    571000   1.026148       0.0049700495   0.76061644    -0.25412994   
    572000   1.0111309      0.0047816432   0.74180636    -0.25808978   
    573000   1.0248122      0.0035343062   0.77616884    -0.2372566    
    574000   1.0152483      0.0037532123   0.73283747    -0.27113024   
    575000   1.0728801      0.0042683374   0.80068101    -0.26027817   
    576000   1.0012494      0.0040585125   0.72857945    -0.26154497   
    577000   1.0435717      0.0044764875   0.77704569    -0.2549308    
    578000   0.97206809     0.0042521139   0.70564547    -0.25562186   
    579000   0.95234573     0.004536445    0.72817382    -0.2135903    
    580000   0.86541293     0.0037050575   0.63098153    -0.2248157    
    581000   1.0119489      0.0050430735   0.76265231    -0.23805272   
    582000   1.08295        0.0057537071   0.83671972    -0.23419749   
    583000   1.1019221      0.0029139085   0.86537975    -0.22429872   
    584000   0.95557867     0.0042908988   0.69956195    -0.24539917   
    585000   0.86866262     0.0030199364   0.62487551    -0.2341353    
    586000   1.0227696      0.004136534    0.77682494    -0.23458055   
    587000   1.1026774      0.0029060788   0.85523283    -0.23519262   
    588000   0.99295164     0.0029076536   0.75133236    -0.23058648   
    589000   1.0954664      0.0037991395   0.84910359    -0.23419093   
    590000   0.99908577     0.0039970341   0.73547916    -0.25250566   
    591000   1.0812361      0.0047354647   0.82778376    -0.24143858   
    592000   0.87620747     0.0029832703   0.61858814    -0.24788369   
    593000   1.0454319      0.0039889001   0.80524802    -0.22856794   
    594000   0.97549388     0.0041656267   0.70953505    -0.25512001   
    595000   0.95623539     0.0040616492   0.71089553    -0.23471502   
    596000   1.0055516      0.0046837136   0.75065742    -0.24372135   
    597000   1.0099286      0.0034187389   0.77424266    -0.22446455   
    598000   1.0090605      0.0034501643   0.77912203    -0.21872672   
    599000   0.99827992     0.0031145275   0.77226932    -0.2149186    
    600000   1.1173866      0.0056918157   0.87571859    -0.22925258   
    601000   0.99881302     0.0038759548   0.73478328    -0.25293181   
    602000   1.0018157      0.0044350645   0.75760156    -0.23308288   
    603000   0.94548887     0.0046109287   0.68739336    -0.24759008   
    604000   0.93134595     0.0028543318   0.69039604    -0.23060162   
    605000   0.97149755     0.0034503153   0.71817713    -0.242526     
    606000   0.99276143     0.0024408925   0.74206345    -0.2396673    
    607000   1.0366827      0.0052313681   0.7645708     -0.26059322   
    608000   1.039531       0.0033687846   0.79667838    -0.23130226   
    609000   0.96081584     0.0037192516   0.71377887    -0.23636124   
    610000   1.0013585      0.0038619343   0.77183473    -0.21839754   
    611000   0.95392847     0.00411271     0.71687688    -0.22645238   
    612000   1.0005467      0.0035856627   0.74226262    -0.24716686   
    613000   0.98804457     0.0034721925   0.74774982    -0.22931647   
    614000   1.0484141      0.0036384244   0.82242927    -0.21433575   
    615000   1.0609312      0.0044043237   0.81451901    -0.23462405   
    616000   1.060364       0.0039030205   0.82711562    -0.22146655   
    617000   0.92072858     0.0034660487   0.67908232    -0.23141594   
    618000   1.0148862      0.0049926422   0.78335799    -0.22025169   
    619000   1.0702662      0.0041976209   0.83554696    -0.22282735   
    620000   0.98735352     0.0044206289   0.77860234    -0.19778058   
    621000   0.94669116     0.0040851983   0.71884461    -0.21732776   
    622000   0.89346144     0.0041993333   0.65933813    -0.22419597   
    623000   0.90218449     0.0027305524   0.69454186    -0.19761836   
    624000   1.0292066      0.0039575852   0.80065092    -0.21712009   
    625000   1.0203899      0.0039527368   0.79017371    -0.21887851   
    626000   0.99605124     0.0045155908   0.75594407    -0.22903994   
    627000   1.052142       0.004925912    0.83189298    -0.20855853   
    628000   1.0476366      0.0040469828   0.82558547    -0.21041075   
    629000   0.98990822     0.0038755633   0.76345138    -0.21545786   
    630000   1.0243572      0.0035306768   0.80366007    -0.20931536   
    631000   0.97774055     0.0041066122   0.73884258    -0.22803419   
    632000   0.99862655     0.0043321193   0.75404334    -0.23348736   
    633000   1.0011283      0.003726989    0.76280028    -0.22720438   
    634000   1.0460152      0.0037503962   0.80075331    -0.23363951   
    635000   0.99620049     0.0039209816   0.78983492    -0.19529668   
    636000   0.97418047     0.0044171337   0.77450989    -0.18884635   
    637000   1.0206281      0.0041716209   0.80795461    -0.20133314   
    638000   1.024907       0.0038246084   0.81074531    -0.2027738    
    639000   1.0202163      0.0055426174   0.78661562    -0.2222649    
    640000   0.9404485      0.0041096084   0.6919698     -0.23802927   
    641000   1.0452169      0.0047689342   0.77310075    -0.26050265   
    642000   0.92033818     0.002932539    0.65134661    -0.2587656    
    643000   0.99437804     0.003206841    0.74427138    -0.23905802   
    644000   0.93350786     0.0035206221   0.66258591    -0.26054964   
    645000   0.9789616      0.0034071156   0.71891095    -0.2491733    
    646000   1.0000644      0.0043120228   0.73916558    -0.24978697   
    647000   1.0107081      0.0049673267   0.74086008    -0.25861794   
    648000   1.0191987      0.0031428252   0.75844331    -0.24943096   
    649000   0.99364243     0.0034262604   0.72746212    -0.25513985   
    650000   1.0542963      0.0052219842   0.78384444    -0.25873743   
    651000   0.92558854     0.0028310439   0.67909128    -0.23621294   
    652000   1.0634294      0.0033699918   0.82156755    -0.23004594   
    653000   1.0431616      0.0037694599   0.83530111    -0.1962698    
    654000   1.0508899      0.0045097036   0.83863114    -0.20058216   
    655000   1.0154903      0.00422804     0.7726484     -0.23155869   
    656000   1.0287657      0.0037583526   0.80752133    -0.20981365   
    657000   1.0098516      0.0030991731   0.74163162    -0.25699946   
    658000   0.95645653     0.0028171279   0.70053151    -0.24529772   
    659000   1.1145827      0.0034712499   0.8715045     -0.23069397   
    660000   1.0335377      0.0037843307   0.77148943    -0.25056455   
    661000   1.1082853      0.0041225151   0.84085756    -0.25511347   
    662000   1.0442946      0.0035320844   0.78937311    -0.24331818   
    663000   1.0836917      0.0038071671   0.82999483    -0.24165588   
    664000   0.88266383     0.0049399686   0.64917313    -0.22368332   
    665000   0.97048893     0.0029157035   0.72030595    -0.23939976   
    666000   1.0010626      0.0038166972   0.74281868    -0.247121     
    667000   0.97929384     0.0038961607   0.71162866    -0.25678413   
    668000   0.9422095      0.0029477912   0.68318974    -0.24855077   
    669000   1.1109284      0.0034835346   0.83425781    -0.26432697   
    670000   1.0763198      0.0044337342   0.80568512    -0.25867554   
    671000   1.0005192      0.0047860921   0.70840454    -0.28099775   
    672000   0.94707305     0.0044585956   0.69717347    -0.23937655   
    673000   0.94767524     0.0048178982   0.68422567    -0.25291984   
    674000   1.0217167      0.004214574    0.72203052    -0.28833381   
    675000   1.0330386      0.0038077689   0.74758896    -0.27397147   
    676000   1.0120937      0.0042954999   0.74836986    -0.25247836   
    677000   0.93178797     0.0034376553   0.70157797    -0.2198568    
    678000   1.0082515      0.0040774865   0.76339557    -0.23365315   
    679000   0.96523819     0.0029677391   0.71440987    -0.24010345   
    680000   0.98975393     0.0044510932   0.76265391    -0.21610275   
    681000   0.99782389     0.0050874518   0.77869246    -0.2080445    
    682000   0.93324904     0.0035252319   0.70615376    -0.21672585   
    683000   1.0087531      0.0027788054   0.78962396    -0.20792077   
    684000   0.94247011     0.0039646458   0.70894318    -0.22305504   
    685000   1.028179       0.004664579    0.79509366    -0.22166113   
    686000   1.0570209      0.0035587668   0.809173      -0.23610325   
    687000   0.99039861     0.0037121065   0.75817835    -0.22121583   
    688000   1.023675       0.0047911365   0.77595726    -0.23634357   
    689000   1.0737883      0.0046772796   0.81811222    -0.2437451    
    690000   1.0384479      0.0031583952   0.78313414    -0.24377546   
    691000   0.96759401     0.0040335666   0.72998268    -0.22686029   
    692000   0.94954527     0.0035732264   0.70371285    -0.23528192   
    693000   0.90140409     0.0029698323   0.66019099    -0.23119751   
    694000   0.97458933     0.0039804098   0.77939163    -0.18436893   
    695000   0.98109727     0.0042453297   0.74052286    -0.22967333   
    696000   1.0612664      0.0030109366   0.83038459    -0.21908998   
    697000   1.0319865      0.004597061    0.79507605    -0.22544393   
    698000   0.97267584     0.0033031409   0.73061317    -0.23125516   
    699000   1.0954733      0.0047817679   0.87702914    -0.20627222   
    700000   0.99330518     0.0034811438   0.76875893    -0.21350953   
    701000   1.0007837      0.00407747     0.79349814    -0.19616578   
    702000   0.98782124     0.0034921776   0.78123383    -0.19561162   
    703000   1.0213379      0.0040003342   0.77578106    -0.23420866   
    704000   1.006818       0.0039959818   0.73945697    -0.25617414   
    705000   0.95967445     0.0030506403   0.7458972     -0.20311419   
    706000   0.99923472     0.0031969288   0.76418486    -0.22394726   
    707000   1.0726002      0.0044135183   0.83706956    -0.22361281   
    708000   1.0222858      0.0040916241   0.74426305    -0.26666407   
    709000   1.0438018      0.0034153605   0.81023175    -0.2219723    
    710000   1.0019757      0.003389467    0.74467576    -0.24616686   
    711000   0.97001926     0.0034654825   0.72829073    -0.23095054   
    712000   0.9711617      0.0039549655   0.6848511     -0.27551992   
    713000   1.0331742      0.0040720287   0.78665443    -0.23504006   
    714000   1.0210807      0.0035999599   0.7266734     -0.28306194   
    715000   0.99021007     0.0034150195   0.71107613    -0.26813161   
    716000   1.0043237      0.0046213668   0.71105881    -0.28210575   
    717000   0.93213223     0.0030427348   0.6477711     -0.27400411   
    718000   0.94019795     0.0042036802   0.64579345    -0.28395786   
    719000   0.96761371     0.0037070055   0.68621903    -0.27064341   
    720000   1.0640255      0.003412394    0.7941288     -0.25807417   
    721000   1.0914417      0.0035212717   0.82576136    -0.25355321   
    722000   0.90612294     0.0041706105   0.6428204     -0.25323452   
    723000   0.98745383     0.0038656367   0.69981277    -0.27666936   
    724000   0.93518045     0.0042333641   0.66201187    -0.26277768   
    725000   0.97736997     0.0049429761   0.67700761    -0.2895027    
    726000   1.0065532      0.0052469049   0.75710077    -0.23826854   
    727000   1.0338324      0.0039798085   0.78091465    -0.24143077   
    728000   1.0237966      0.0045226634   0.73287635    -0.2795447    
    729000   1.055852       0.0040541991   0.76606955    -0.27805074   
    730000   1.0698237      0.00426765     0.72640334    -0.33153342   
    731000   1.0344994      0.0042987756   0.7414147     -0.28159029   
    732000   0.9094525      0.0031695645   0.6004853     -0.29886217   
    733000   1.0217133      0.0045183168   0.70320522    -0.30715568   
    734000   0.95510908     0.0042290062   0.61724636    -0.3272504    
    735000   0.99173995     0.0033896013   0.66819967    -0.31252095   
    736000   1.0787603      0.0039881703   0.76499107    -0.30178304   
    737000   1.0319016      0.0042222646   0.69118193    -0.32925407   
    738000   0.94070321     0.0036220154   0.61626881    -0.31398214   
    739000   1.0864828      0.0041132603   0.74052408    -0.33388672   
    740000   1.0020805      0.0037126224   0.7086266     -0.2823197    
    741000   0.97561297     0.0025621079   0.68847781    -0.27629501   
    742000   0.97092498     0.0043848443   0.65630102    -0.30383591   
    743000   1.0062915      0.0040098099   0.67924526    -0.31586523   
    744000   0.89747502     0.0033854251   0.59864568    -0.2888574    
    745000   0.979896       0.003492934    0.67506266    -0.29394561   
    746000   0.99266646     0.0040964568   0.72295466    -0.25868217   
    747000   0.93674709     0.0041592421   0.67706789    -0.2492709    
    748000   0.88779692     0.0028457797   0.59639925    -0.28153327   
    749000   1.0380007      0.0037881262   0.76044658    -0.26602074   
    750000   1.0221837      0.003664184    0.75476667    -0.25605941   
    751000   1.010945       0.0031556716   0.69947903    -0.30023323   
    752000   1.0388113      0.0037285161   0.76968974    -0.25757917   
    753000   1.052515       0.0031121181   0.80935643    -0.23146394   
    754000   0.98260101     0.003949578    0.70211824    -0.26956498   
    755000   0.94686678     0.0039180205   0.68027917    -0.25606687   
    756000   0.98620856     0.0042683453   0.70870468    -0.266546     
    757000   1.079385       0.0045009024   0.80727049    -0.26012139   
    758000   0.98018968     0.0031567881   0.73023879    -0.23905989   
    759000   0.97412831     0.0038656108   0.72221011    -0.24109455   
    760000   1.0279061      0.0045601726   0.77187931    -0.24460558   
    761000   0.9990028      0.004366741    0.75199763    -0.23590514   
    762000   0.98536728     0.0045309935   0.72039827    -0.25402048   
    763000   1.0603633      0.0047783692   0.81218886    -0.23639262   
    764000   0.93639001     0.0038981392   0.7015969     -0.22438877   
    765000   0.97726391     0.0036557084   0.72881488    -0.23759054   
    766000   1.0278768      0.0051989478   0.77041153    -0.24604445   
    767000   0.93790787     0.004492046    0.66488852    -0.26259815   
    768000   1.0744358      0.0048617724   0.80492613    -0.25757146   
    769000   1.0689682      0.0031001049   0.76519715    -0.29189362   
    770000   0.88789977     0.0029651734   0.59049084    -0.28754337   
    771000   1.0194491      0.0045438012   0.75625953    -0.25186235   
    772000   0.99552715     0.0035235132   0.70879871    -0.27566703   
    773000   1.0317185      0.0037815769   0.76995428    -0.2503007    
    774000   1.016277       0.0044623842   0.74445005    -0.26053499   
    775000   1.1649165      0.004275601    0.89340425    -0.25856872   
    776000   0.96202781     0.0034939128   0.75927118    -0.19206743   
    777000   0.97380417     0.0033661121   0.74317999    -0.21980414   
    778000   0.96149707     0.0028693597   0.71850697    -0.2323068    
    779000   0.98340728     0.0026078564   0.7552021     -0.21727843   
    780000   0.9919289      0.0041944569   0.76571356    -0.21519391   
    781000   0.96437363     0.0028962346   0.74110783    -0.21255054   
    782000   1.0842341      0.0052621252   0.84571401    -0.22647301   
    783000   0.91553536     0.0020059825   0.71245727    -0.19290547   
    784000   0.95763357     0.002975901    0.72541421    -0.22157898   
    785000   0.99750726     0.0032840221   0.74938537    -0.23703847   
    786000   0.99330841     0.004621856    0.75349676    -0.22877489   
    787000   0.99187842     0.0042307971   0.75773967    -0.22311789   
    788000   1.0398947      0.004088122    0.83947019    -0.18887014   
    789000   1.042109       0.0039951091   0.83061102    -0.19991898   
    790000   1.128036       0.0040713576   0.91207235    -0.20342987   
    791000   1.0575082      0.0032112383   0.81420263    -0.23155549   
    792000   1.0528047      0.0035655925   0.81907192    -0.22203491   
    793000   0.97002559     0.0034993921   0.7415669     -0.21768062   
    794000   0.97354397     0.0045286559   0.72814817    -0.23457864   
    795000   0.98081825     0.0026273946   0.75254208    -0.21737818   
    796000   1.064246       0.0039773627   0.83956465    -0.21285641   
    797000   0.96728411     0.0054069559   0.74085149    -0.21568502   
    798000   1.0893456      0.0057286379   0.86126602    -0.21597576   
    799000   1.0200867      0.0036753285   0.78180687    -0.22694557   
    800000   0.98064632     0.0037861638   0.73127051    -0.23847974   
    801000   0.98848964     0.0041497737   0.75934591    -0.21816051   
    802000   1.0181619      0.0042444654   0.77549024    -0.23135871   
    803000   0.94154486     0.0048147104   0.68006335    -0.2510199    
    804000   0.98262481     0.0038244815   0.74554816    -0.22615859   
    805000   1.1105451      0.004377716    0.8785974     -0.21960828   
    806000   1.0282611      0.0038172045   0.78646351    -0.23037244   
    807000   1.0265684      0.0041045026   0.76655629    -0.24860577   
    808000   1.0678588      0.004098152    0.83058748    -0.22540618   
    809000   1.1009532      0.0038077014   0.86741286    -0.2213075    
    810000   1.0367193      0.0032261774   0.78123719    -0.243963     
    811000   0.9577699      0.0028116885   0.69721395    -0.24991407   
    812000   0.98707528     0.0044409859   0.74594092    -0.23016686   
    813000   1.0486778      0.002708284    0.81720538    -0.21982043   
    814000   0.97783853     0.0034993937   0.73371137    -0.23326229   
    815000   1.0412974      0.003571075    0.78706976    -0.24265769   
    816000   1.1008019      0.0044394719   0.84772342    -0.24084735   
    817000   0.87487234     0.003268326    0.6273036     -0.23784794   
    818000   0.93408838     0.003414633    0.6708885     -0.25282112   
    819000   1.046463       0.0037314341   0.80953204    -0.22530355   
    820000   1.0249847      0.0040478412   0.77669837    -0.23689766   
    821000   0.9365697      0.0038863407   0.68704095    -0.23912243   
    822000   1.0191962      0.0049876794   0.76158995    -0.2462818    
    823000   1.0447046      0.0046980267   0.78261424    -0.25048253   
    824000   0.90341523     0.0040342897   0.65877269    -0.2346046    
    825000   1.0374737      0.0046556649   0.75983447    -0.26611176   
    826000   1.0477959      0.0046216218   0.76837754    -0.26777614   
    827000   0.89227222     0.0035874928   0.60970205    -0.27265603   
    828000   1.0107561      0.0044052482   0.73100608    -0.26851941   
    829000   0.99567769     0.0043153511   0.76036274    -0.22425186   
    830000   0.97155659     0.0041739697   0.71171307    -0.24904845   
    831000   0.92705326     0.0028083302   0.66043973    -0.25631294   
    832000   0.98207484     0.0045983431   0.73376088    -0.23740202   
    833000   1.0255284      0.004154387    0.77368559    -0.24044807   
    834000   1.0277024      0.005099544    0.7861899     -0.23009357   
    835000   0.94924532     0.0029371912   0.72290154    -0.21579661   
    836000   0.98484583     0.0041444473   0.79246375    -0.18143935   
    837000   1.0352135      0.0041858098   0.81575057    -0.20796057   
    838000   1.0124292      0.0045260949   0.81047697    -0.19070301   
    839000   1.0500781      0.0030215714   0.82263315    -0.21577743   
    840000   1.0235403      0.0038244216   0.7918454     -0.22032225   
    841000   0.96814026     0.0035912137   0.76056029    -0.19682286   
    842000   1.0156133      0.0040159839   0.79667495    -0.20765375   
    843000   1.0720841      0.0044559818   0.87863328    -0.18153873   
    844000   0.97319237     0.0037866484   0.77507629    -0.18730283   
    845000   0.95616824     0.0048397295   0.76743758    -0.17810657   
    846000   1.0259519      0.0048749507   0.81575697    -0.19879544   
    847000   0.9706745      0.0036284359   0.77795209    -0.18193714   
    848000   1.0105227      0.0045245418   0.80804784    -0.19124679   
    849000   1.0078091      0.0043996927   0.83602485    -0.16058636   
    850000   1.0298205      0.00478153     0.82473764    -0.19364038   
    851000   0.97028386     0.004647058    0.75462073    -0.2048822    
    852000   0.92659145     0.0037535355   0.72700339    -0.18929259   
    853000   0.95112633     0.0027734737   0.79082156    -0.14973671   
    854000   0.97926037     0.0031057922   0.79322826    -0.17515144   
    855000   0.8649614      0.0035640661   0.67406354    -0.18128717   
    856000   1.0377506      0.0052621319   0.85122904    -0.17499102   
    857000   0.99481855     0.0037749244   0.82753859    -0.15622642   
    858000   1.0231463      0.0053802878   0.82543215    -0.18634589   
    859000   1.0228594      0.0047863659   0.82041006    -0.19108427   
    860000   0.98815781     0.003569437    0.81468547    -0.16249281   
    861000   0.99263215     0.0046511421   0.81268929    -0.16891361   
    862000   1.0091521      0.0032574906   0.84830381    -0.14963546   
    863000   1.1025231      0.0040424152   0.9325583     -0.15771458   
    864000   0.99165574     0.0045878397   0.85666178    -0.12397557   
    865000   1.0171006      0.0029164988   0.85725716    -0.14854232   
    866000   1.0292328      0.0040833247   0.88031805    -0.13747884   
    867000   0.98289672     0.0040705824   0.82644015    -0.14553549   
    868000   0.99789814     0.0038405813   0.81283082    -0.17397956   
    869000   0.99715151     0.0041938062   0.82199303    -0.16407902   
    870000   1.0084198      0.0041302234   0.81174499    -0.18547017   
    871000   1.0600908      0.004484609    0.85783209    -0.19047991   
    872000   0.95828858     0.0038555271   0.75078359    -0.19685734   
    873000   1.0522942      0.0045502038   0.83821431    -0.2023877    
    874000   0.99311685     0.0040095115   0.81267587    -0.16940635   
    875000   0.92542081     0.0034948625   0.75128581    -0.16385255   
    876000   0.99208349     0.0038706871   0.79212122    -0.18893912   
    877000   1.0741805      0.0041945871   0.87788842    -0.18435678   
    878000   1.0023022      0.003857767    0.80217381    -0.18899171   
    879000   1.0000423      0.0044004295   0.78615072    -0.20277998   
    880000   0.97908302     0.0038096598   0.76424005    -0.20396427   
    881000   0.98028546     0.0038155381   0.7597344     -0.209659     
    882000   0.96339427     0.0038196427   0.76050393    -0.19218596   
    883000   1.0079799      0.004021076    0.78958339    -0.20719674   
    884000   1.0237661      0.0043928918   0.79985073    -0.21254019   
    885000   1.0491651      0.0051072115   0.83950235    -0.19800537   
    886000   0.96171285     0.0038607606   0.72846201    -0.22256513   
    887000   1.0727502      0.0051234473   0.84863721    -0.21219352   
    888000   0.98154163     0.0038252869   0.74409335    -0.22654226   
    889000   1.099305       0.0042100205   0.84556373    -0.24152677   
    890000   0.92638472     0.0033475556   0.64989913    -0.26619243   
    891000   0.92530675     0.0026129491   0.70230429    -0.21272127   
    892000   1.0519929      0.0039361303   0.79174817    -0.24855596   
    893000   0.97108207     0.0047483944   0.76918653    -0.19110574   
    894000   0.98928922     0.0027982279   0.77517059    -0.20312653   
    895000   0.89253408     0.0054652318   0.6895375     -0.19307953   
    896000   1.0848138      0.0038171203   0.86474482    -0.20801552   
    897000   0.99383546     0.0038085255   0.77426303    -0.20852982   
    898000   1.0044582      0.0042298906   0.79040751    -0.20289001   
    899000   0.83162619     0.0026397821   0.62244802    -0.19993788   
    900000   1.0268231      0.0030228819   0.80661475    -0.20879917   
    901000   0.98185607     0.0031400798   0.74404275    -0.2269038    
    902000   0.95472918     0.0035028181   0.70839004    -0.23573103   
    903000   0.9868715      0.0036439641   0.75276436    -0.2231419    
    904000   1.0154173      0.0041148858   0.77365345    -0.23048144   
    905000   0.89868029     0.0033481319   0.66297425    -0.2257207    
    906000   1.0167639      0.0041625438   0.7681891     -0.23727743   
    907000   1.0178922      0.0049788681   0.78203901    -0.22454326   
    908000   1.0530401      0.0039085377   0.84789647    -0.1934432    
    909000   0.99277494     0.003542694    0.75656874    -0.22517537   
    910000   1.0068524      0.0038534889   0.79024832    -0.20541681   
    911000   1.0619323      0.0050624668   0.82395825    -0.22617481   
    912000   1.127775       0.0044489578   0.87257831    -0.24266585   
    913000   1.0349936      0.004536712    0.81119885    -0.21229483   
    914000   1.0851592      0.0027837732   0.85394848    -0.21915343   
    915000   0.97096118     0.0043153749   0.75538013    -0.20479259   
    916000   1.0282147      0.0048624797   0.80388281    -0.21290732   
    917000   1.026508       0.003481057    0.79224357    -0.22285877   
    918000   0.89099939     0.0044084728   0.65988623    -0.22121316   
    919000   0.97580715     0.0039061352   0.73563032    -0.22933453   
    920000   0.97294882     0.0037657231   0.74475455    -0.21738372   
    921000   1.0036363      0.0031490729   0.739886      -0.25259878   
    922000   0.95152479     0.0037073705   0.69619584    -0.24475645   
    923000   0.97191369     0.0037555684   0.70513606    -0.25597858   
    924000   0.95335993     0.0031336174   0.68718561    -0.25558144   
    925000   0.93294336     0.0045173567   0.66947908    -0.25309825   
    926000   0.91961917     0.0038547652   0.69923353    -0.21016765   
    927000   1.0004217      0.0037860573   0.74669136    -0.24261454   
    928000   0.98677819     0.003755438    0.7301252     -0.2456888    
    929000   1.0763914      0.0037769655   0.81479475    -0.24963679   
    930000   0.97635846     0.0037010471   0.73126611    -0.23424392   
    931000   0.99845909     0.004353416    0.73970477    -0.24766033   
    932000   1.086971       0.0039002769   0.82357231    -0.25132121   
    933000   1.0694465      0.002853068    0.80275284    -0.25481092   
    934000   1.0098048      0.0046266169   0.76819928    -0.23038544   
    935000   0.99077479     0.0035300888   0.74944525    -0.23032093   
    936000   1.045374       0.004728775    0.80711729    -0.22664147   
    937000   1.0721104      0.0042820021   0.84371592    -0.21648213   
    938000   1.0521836      0.0036251632   0.80731663    -0.23317607   
    939000   1.0466813      0.0051247324   0.79974007    -0.23531143   
    940000   0.97701657     0.0051902944   0.72405129    -0.24210954   
    941000   0.99296923     0.0035358874   0.77530573    -0.20663051   
    942000   1.0610288      0.0036138395   0.82021253    -0.22902703   
    943000   0.88075982     0.0044840544   0.65993959    -0.21103401   
    944000   0.99853872     0.0039738064   0.76116577    -0.22627807   
    945000   1.0117424      0.0026209462   0.79074066    -0.20976017   
    946000   1.0754776      0.0042367925   0.87685475    -0.18667312   
    947000   0.95520984     0.0033156527   0.75930383    -0.18529258   
    948000   1.0612925      0.0044316804   0.85128439    -0.19821594   
    949000   1.056984       0.0040644324   0.86434861    -0.18089117   
    950000   1.0707648      0.0038389721   0.85017869    -0.20868868   
    951000   0.97425089     0.0037658649   0.77857801    -0.18484788   
    952000   1.0789366      0.004362639    0.83360353    -0.23334484   
    953000   1.0121469      0.0042842467   0.76155243    -0.23934836   
    954000   1.0280089      0.0041958959   0.77168892    -0.24489765   
    955000   1.0223373      0.0037631012   0.74719182    -0.26378614   
    956000   0.9293617      0.0040395111   0.6411023     -0.27793316   
    957000   0.98099602     0.0028504898   0.71130445    -0.25879161   
    958000   0.9715581      0.0046251552   0.69877605    -0.26198696   
    959000   1.0181051      0.0029621267   0.76428195    -0.24251091   
    960000   1.0056239      0.003911712    0.72209478    -0.27235547   
    961000   1.0367754      0.0033449714   0.76375228    -0.26150339   
    962000   0.99619923     0.0032817446   0.73475838    -0.25037197   
    963000   1.0296908      0.004245806    0.75774717    -0.26050267   
    964000   1.0308524      0.0038243691   0.81415061    -0.20524788   
    965000   1.0407158      0.0039680574   0.77729847    -0.25185381   
    966000   1.0464844      0.004192226    0.80601051    -0.22884624   
    967000   1.0379407      0.0035137197   0.78546735    -0.24094069   
    968000   0.98669558     0.0035164701   0.72203179    -0.25370051   
    969000   1.032116       0.0051781171   0.8170749     -0.20357315   
    970000   1.1374737      0.0044290288   0.92058798    -0.20424716   
    971000   1.0392069      0.0040608473   0.82385559    -0.20380461   
    972000   0.98701676     0.0044118761   0.73655484    -0.23949507   
    973000   1.0958978      0.0050053378   0.84399513    -0.23972607   
    974000   1.027573       0.0037532084   0.76853522    -0.24762031   
    975000   0.95319416     0.0041413545   0.6932964     -0.24930672   
    976000   1.0717832      0.0036036681   0.82703812    -0.23283642   
    977000   0.97129441     0.0036612354   0.73320973    -0.22729252   
    978000   1.004472       0.0046177474   0.7655003     -0.22781086   
    979000   0.93867951     0.0038216222   0.72388533    -0.2043644    
    980000   0.97770974     0.0030098469   0.75374511    -0.21310119   
    981000   0.88318613     0.0036659043   0.65244568    -0.22092727   
    982000   1.07206        0.0048392413   0.83953953    -0.22060873   
    983000   1.0235444      0.0049282589   0.81369649    -0.19847521   
    984000   1.0076381      0.0041098221   0.76694298    -0.22949916   
    985000   1.0487749      0.0038268134   0.80895408    -0.2281678    
    986000   1.0482183      0.0036122219   0.81638829    -0.2201831    
    987000   1.0405717      0.0035163921   0.78634489    -0.24266488   
    988000   0.98440317     0.0035367268   0.75082234    -0.22264301   
    989000   1.0245652      0.004055126    0.77890162    -0.23427956   
    990000   1.0173702      0.0046646011   0.80395606    -0.20211006   
    991000   0.89863798     0.0035916981   0.69283061    -0.1958225    
    992000   0.95683499     0.0041470322   0.75517392    -0.19102957   
    993000   1.0209558      0.0039568315   0.78318464    -0.22642717   
    994000   1.0176646      0.0036651335   0.77053201    -0.23582523   
    995000   1.0398506      0.0041541066   0.82461662    -0.2036801    
    996000   1.0472162      0.0033561897   0.80505099    -0.23052944   
    997000   1.0363377      0.004194458    0.79210537    -0.23271746   
    998000   1.0583541      0.0037663188   0.81828542    -0.22830921   
    999000   1.0584773      0.0034714412   0.81181501    -0.23490139   
   1000000   1.0062718      0.0045216825   0.76154487    -0.23354618   
Loop time of 17.0297 on 1 procs for 1000000 steps with 405 atoms

Performance: 50734920.998 tau/day, 58720.973 timesteps/s
99.7% CPU use with 1 MPI tasks x no OpenMP threads

MPI task timing breakdown:
Section |  min time  |  avg time  |  max time  |%varavg| %total
---------------------------------------------------------------
Pair    | 1.1111     | 1.1111     | 1.1111     |   0.0 |  6.52
Bond    | 0.040997   | 0.040997   | 0.040997   |   0.0 |  0.24
Neigh   | 3.3149     | 3.3149     | 3.3149     |   0.0 | 19.47
Comm    | 0.80783    | 0.80783    | 0.80783    |   0.0 |  4.74
Output  | 0.30941    | 0.30941    | 0.30941    |   0.0 |  1.82
Modify  | 10.149     | 10.149     | 10.149     |   0.0 | 59.59
Other   |            | 1.297      |            |       |  7.61

Nlocal:            405 ave         405 max         405 min
Histogram: 1 0 0 0 0 0 0 0 0 0
Nghost:             59 ave          59 max          59 min
Histogram: 1 0 0 0 0 0 0 0 0 0
Neighs:             41 ave          41 max          41 min
Histogram: 1 0 0 0 0 0 0 0 0 0

Total # of neighbors = 41
Ave neighs/atom = 0.10123457
Ave special neighs/atom = 0
Neighbor list builds = 212394
Dangerous builds = 0
Total wall time: 0:00:17
