fix fLANG all langevin 1.0 1.0 1.0 100
neigh_modify exclude molecule/intra all
fix rigidNVE linked_vesicle rigid/nve molecule
  1 rigid bodies with 5 atoms
fix NVE synapsin nve 1.0 1.0 1.0

    ##======================================##
    ## Output
    ##======================================##

thermo 1000
thermo_style custom step temp press etotal epair
thermo_modify flush yes
timestep 0.01

    ##======================================##
    ## Equilibration before output
    ##======================================##


    ##======================================##
    ## Run with output
    ##======================================##

fix enforce_2d all enforce2d
dump 2 all custom 1000 Results_eps_attr10_eps_rep1_range2_attr_with_repTrue_n_synapsin400_n_vesicles1/Movie_2d_eps_attr10_eps_rep1_range2_attr_with_repTrue_n_synapsin400_n_vesicles1.xyz id type mol x y z
run 1000000
Generated 0 of 3 mixed pair_coeff terms from geometric mixing rule
Neighbor list info ...
  update every 1 steps, delay 1 steps, check yes
  max neighbors/atom: 2000, page size: 100000
  master list distance cutoff = 11.52462
  ghost atom cutoff = 11.52462
  binsize = 5.7623102, bins = 55 55 1
  1 neighbor lists, perpetual/occasional/extra = 1 0 0
  (1) pair cosine/squared, perpetual
      attributes: half, newton on
      pair build: half/bin/newton
      stencil: half/bin/2d
      bin: standard
Per MPI rank memory allocation (min/avg/max) = 8.526 | 8.526 | 8.526 Mbytes
   Step          Temp          Press          TotEng         E_pair    
         0   0.99441908    -0.013071225    0.98336998     0            
      1000   1.052877       0.0040548885   1.0411809      2.5044906e-06
      2000   0.97902644     0.0030040622   0.96849889     0.00035052091
      3000   1.0601207      0.0035583022   1.0483416      0            
      4000   1.0466423      0.0043625821   1.0350129      0            
      5000   1.0005436      0.0035020426   0.98945454     2.8061539e-05
      6000   0.97028404     0.0030784247   0.95950311     0            
      7000   0.9429228      0.0035389451   0.9342467      0.001800821  
      8000   1.070792       0.0042930144   1.0588943      0            
      9000   1.099818       0.0040939823   1.0875978      0            
     10000   1.064277       0.0047931011   1.0524517      0            
     11000   0.96179056     0.0044418403   0.951104       0            
     12000   0.92642342     0.0057289913   0.89246103    -0.023668789  
     13000   0.94732276     0.0035572068   0.8973518     -0.039445152  
     14000   1.0538326      0.0047848782   0.99499656    -0.04712678   
     15000   0.95597058     0.0039241397   0.90057279    -0.044775891  
     16000   0.97844323     0.0048975587   0.92947412    -0.038097527  
     17000   1.0040565      0.0038338923   0.94843261    -0.044467707  
     18000   1.0986859      0.0044863596   1.0201429     -0.066335401  
     19000   1.0039617      0.0032692922   0.93249721    -0.060309394  
     20000   0.9817922      0.0034497582   0.89960661    -0.071276789  
     21000   0.95898126     0.0038645201   0.88235512    -0.065970793  
     22000   0.9006651      0.0042558924   0.81946686    -0.071190848  
     23000   0.90843149     0.0036031187   0.8053125     -0.093025314  
     24000   0.94650558     0.004646884    0.8445816     -0.091407247  
     25000   0.95403654     0.00365455     0.85208427    -0.091351864  
     26000   0.9636951      0.0044236626   0.86246763    -0.090519749  
     27000   0.99675051     0.0039037411   0.89927132    -0.086404184  
     28000   1.0303311      0.004627565    0.92934755    -0.089535394  
     29000   1.0385385      0.005109758    0.91659949    -0.11039967   
     30000   0.9634999      0.0039027887   0.82142104    -0.13137331   
     31000   0.98998373     0.004490125    0.83472032    -0.1442636    
     32000   1.0570373      0.0032424272   0.91316269    -0.13212979   
     33000   1.0161126      0.0032439454   0.8744121     -0.1304104    
     34000   0.95999682     0.0040126255   0.81082288    -0.13850731   
     35000   1.0429109      0.003788398    0.90081509    -0.13050789   
     36000   0.98778782     0.0043202843   0.84174439    -0.13506801   
     37000   1.0220952      0.0034664627   0.87787528    -0.13286331   
     38000   0.99538124     0.0043871025   0.85412336    -0.13019808   
     39000   0.90134575     0.0039539659   0.75391537    -0.13741542   
     40000   1.0406376      0.0043615828   0.89970746    -0.1293675    
     41000   0.93769857     0.0029558459   0.76267435    -0.16460535   
     42000   1.0385582      0.0051850267   0.85024629    -0.17677237   
     43000   0.98479357     0.0034629392   0.79590092    -0.1779505    
     44000   1.0564456      0.0081266781   0.87249302    -0.17221433   
     45000   1.0340465      0.0042970347   0.83286753    -0.18968956   
     46000   1.0490885      0.0037351338   0.81561741    -0.2218146    
     47000   0.98297948     0.0037924111   0.75937042    -0.21268706   
     48000   1.0614058      0.0039004515   0.82772732    -0.22188506   
     49000   0.99523113     0.0046309024   0.77775976    -0.20641325   
     50000   0.95737484     0.0027577591   0.73011452    -0.21662283   
     51000   0.99521716     0.0048118339   0.73560801    -0.24855118   
     52000   1.1068986      0.004830205    0.85862421    -0.23597556   
     53000   1.0325625      0.0037617781   0.78527802    -0.23581158   
     54000   1.0675569      0.0053682121   0.81473631    -0.24095889   
     55000   0.99175878     0.0043361271   0.71817605    -0.26256319   
     56000   1.038184       0.0032937234   0.75115573    -0.27549289   
     57000   0.99506418     0.007880086    0.71585841    -0.26814951   
     58000   0.96887249     0.0038031409   0.69728629    -0.26082095   
     59000   1.0173104      0.0035056001   0.75386965    -0.25213732   
     60000   1.0288147      0.0043797856   0.75820793    -0.25917546   
     61000   1.0475871      0.0073394522   0.78869211    -0.24725511   
     62000   0.98201157     0.0027847757   0.73249001    -0.23861033   
     63000   1.0568244      0.0059658618   0.81087537    -0.23420652   
     64000   0.99307757     0.0035709552   0.73685423    -0.24518915   
     65000   1.0453606      0.0027980457   0.80721073    -0.22653478   
     66000   1.0350393      0.0031524419   0.79353115    -0.2300077    
     67000   1.0199108      0.0025986289   0.76678478    -0.2417937    
     68000   0.97799584     0.0042371969   0.7354528     -0.23167642   
     69000   0.99080539     0.0045936829   0.76130626    -0.21849018   
     70000   1.0551811      0.003635759    0.82541994    -0.2180369    
     71000   0.96193034     0.0037220775   0.74504473    -0.2061975    
     72000   1.0777952      0.0035302892   0.8225292     -0.24329049   
     73000   0.94005995     0.0033833585   0.69636656    -0.23324828   
     74000   0.93624288     0.0041638494   0.689653      -0.23618717   
     75000   1.0230782      0.0047729326   0.7985596     -0.2131511    
     76000   1.0670428      0.0034582899   0.82717581    -0.22801094   
     77000   1.0468058      0.0038757261   0.80841928    -0.22675536   
     78000   1.0112708      0.0044083004   0.77575732    -0.22427713   
     79000   0.98852395     0.0052525701   0.78971659    -0.18782376   
     80000   1.0975434      0.003121086    0.87433002    -0.21101841   
     81000   0.96616599     0.0030347146   0.75029054    -0.20514027   
     82000   1.0169543      0.0080904306   0.79481603    -0.21083878   
     83000   1.0179586      0.0041383097   0.79267056    -0.21397737   
     84000   0.93789974     0.00379333     0.72124907    -0.20622956   
     85000   0.97132028     0.0042852036   0.74506558    -0.21546225   
     86000   1.0024891      0.0046524638   0.77278085    -0.2185695    
     87000   0.97002116     0.0029294096   0.75210371    -0.20713944   
     88000   0.9949925      0.0042698342   0.75254186    -0.23139517   
     89000   0.9845489      0.0045520216   0.73672137    -0.23688811   
     90000   0.99558271     0.0038988371   0.74191043    -0.24261024   
     91000   0.97881386     0.0030593659   0.72733321    -0.24060494   
     92000   0.9956243      0.0034032509   0.74735266    -0.23720914   
     93000   1.059672       0.0045644625   0.80007397    -0.24782389   
     94000   1.0078587      0.0043500702   0.76117901    -0.2354813    
     95000   1.0081939      0.0034071771   0.75820579    -0.23878597   
     96000   1.0412782      0.0044532324   0.79222143    -0.23748705   
     97000   0.95141865     0.0062842007   0.69283181    -0.24801553   
     98000   0.97440215     0.0041489734   0.72447542    -0.23910004   
     99000   0.97267123     0.0038001988   0.74578964    -0.21607413   
    100000   0.99123027     0.0030034705   0.74152697    -0.23868963   
    101000   1.1025124      0.0040680379   0.85714789    -0.23311442   
    102000   0.96805553     0.0035921659   0.71654989    -0.24074946   
    103000   1.0942358      0.0031369748   0.8517938     -0.23028383   
    104000   0.96192084     0.0036886856   0.68652719    -0.26470564   
    105000   0.98488017     0.0048559718   0.70167968    -0.27225738   
    106000   0.95663216     0.0031621333   0.67800254    -0.26800037   
    107000   1.0311896      0.005866726    0.75198677    -0.26774518   
    108000   0.94927599     0.0030524488   0.69329858    -0.2454299    
    109000   0.97410488     0.0019923713   0.70182695    -0.26145455   
    110000   1.0471526      0.0040898905   0.74268331    -0.2928343    
    111000   1.0436021      0.0046311802   0.74398562    -0.28802093   
    112000   1.011194       0.0031386813   0.73533904    -0.26461945   
    113000   1.0223028      0.0042393892   0.76716976    -0.24377417   
    114000   1.0172248      0.0038417497   0.74726936    -0.25865295   
    115000   1.1313533      0.0048982983   0.83785635    -0.28092634   
    116000   1.0408648      0.0066415523   0.73725555    -0.29204412   
    117000   1.0330628      0.003556086    0.72655788    -0.29502642   
    118000   1.0696773      0.004367706    0.77153832    -0.28625364   
    119000   1.0663252      0.0042745851   0.76747984    -0.28699728   
    120000   1.0270012      0.004596442    0.74224474    -0.27334536   
    121000   1.0950088      0.0044218333   0.78276385    -0.30007815   
    122000   0.97870468     0.007774156    0.6726963     -0.29513388   
    123000   1.0339161      0.00298255     0.70732239    -0.31510574   
    124000   0.95309418     0.0040835245   0.60784817    -0.33465608   
    125000   0.97845819     0.0029808561   0.63636161    -0.33122482   
    126000   0.99755903     0.0052386566   0.65725736    -0.32921769   
    127000   0.97240558     0.0058600087   0.62416546    -0.33743562   
    128000   1.0658426      0.0042085461   0.72291094    -0.33108892   
    129000   1.0189905      0.0050769877   0.6945863     -0.31308211   
    130000   0.98175594     0.0051070929   0.6670346     -0.30381294   
    131000   1.0098304      0.0033808056   0.6961903     -0.3024198    
    132000   0.94751007     0.002599555    0.63047604    -0.30650613   
    133000   0.99395306     0.0044926864   0.66097699    -0.32193215   
    134000   1.0527464      0.0041157409   0.73571672    -0.30533249   
    135000   1.032772       0.0031510439   0.70462752    -0.31666926   
    136000   0.90623461     0.0029913796   0.58848813    -0.3076772    
    137000   0.95837813     0.0031059522   0.6425858     -0.30514368   
    138000   0.96948316     0.003813782    0.65669798    -0.30201314   
    139000   0.96060053     0.0036957788   0.63598767    -0.31393952   
    140000   0.98637964     0.0030586562   0.658915      -0.31650487   
    141000   0.98456493     0.0070061598   0.65469018    -0.31893514   
    142000   1.0447849      0.0038620414   0.69411531    -0.33906084   
    143000   0.95345604     0.0031474918   0.5856088     -0.35725328   
    144000   1.030943       0.0067209504   0.67295581    -0.3465323    
    145000   0.91554149     0.0037745397   0.50944144    -0.39592737   
    146000   0.92451892     0.0020562495   0.55239869    -0.3618478    
    147000   1.0193818      0.0026936603   0.60834939    -0.39970594   
    148000   1.0037704      0.0037487932   0.59456403    -0.39805338   
    149000   0.92521611     0.0034562573   0.5141105     -0.40082543   
    150000   1.0045921      0.0035892861   0.59201495    -0.40141499   
    151000   0.97736227     0.0046201385   0.56099575    -0.40550694   
    152000   1.0235461      0.002490345    0.59637185    -0.41580155   
    153000   0.98827303     0.0039688725   0.56027368    -0.41701854   
    154000   1.0312181      0.0030732071   0.59876637    -0.42099371   
    155000   1.1194005      0.0042501296   0.68658486    -0.42037781   
    156000   1.0929882      0.005279652    0.66232864    -0.41851521   
    157000   0.97543333     0.0034008386   0.55255923    -0.41203595   
    158000   1.0391872      0.0034522302   0.6022694     -0.42537132   
    159000   0.98570942     0.0036953083   0.54801033    -0.42674677   
    160000   1.0031733      0.0043982066   0.55405482    -0.43797212   
    161000   0.9436626      0.0028867101   0.50616349    -0.42701396   
    162000   1.0431682      0.0038924825   0.60906756    -0.4225099    
    163000   1.0397713      0.0041136554   0.57632146    -0.45189678   
    164000   1.0169361      0.0043174147   0.58018598    -0.42545081   
    165000   1.0765048      0.0087914483   0.61925393    -0.44528969   
    166000   0.94753644     0.0044634537   0.49972022    -0.43728803   
    167000   1.0059974      0.0049570979   0.55825078    -0.4365689    
    168000   1.0663258      0.0036198959   0.62101302    -0.4334647    
    169000   1.0330502      0.0030662127   0.60239752    -0.4191743    
    170000   0.97204594     0.0056701715   0.51872774    -0.44251768   
    171000   1.0327465      0.0036036878   0.60578       -0.41549153   
    172000   1.0430001      0.0043833677   0.60051395    -0.43089724   
    173000   1.0242746      0.0044929681   0.59110019    -0.42179356   
    174000   1.0619792      0.0032109289   0.62709471    -0.42308471   
    175000   0.97998796     0.0031406527   0.52936583    -0.43973338   
    176000   0.95701046     0.0034323182   0.48541452    -0.46096249   
    177000   0.96967451     0.0046190311   0.48889326    -0.47000708   
    178000   0.97077411     0.0019927045   0.48962028    -0.47036746   
    179000   0.9875116      0.0053516402   0.52023219    -0.45630706   
    180000   0.946394       0.0071183009   0.47622941    -0.45964909   
    181000   0.98368908     0.0019877903   0.51950563    -0.45325357   
    182000   0.96890993     0.0030804957   0.52417134    -0.43397292   
    183000   1.0491657      0.0013568002   0.61845503    -0.41905322   
    184000   1.0617293      0.0028187993   0.61668046    -0.43325188   
    185000   1.0183544      0.0030193745   0.56884734    -0.43819205   
    186000   0.98008508     0.00321128     0.54456487    -0.42463038   
    187000   0.97028392     0.0046602567   0.54074761    -0.41875538   
    188000   1.039946       0.0028879206   0.58624542    -0.44214561   
    189000   0.90716423     0.0025080981   0.45077245    -0.44631218   
    190000   1.1068181      0.0039335592   0.6379299     -0.45659023   
    191000   1.0406629      0.0030508234   0.56526422    -0.46383571   
    192000   1.0349185      0.0031231849   0.55036115    -0.47305828   
    193000   0.99379511     0.0041452603   0.5514722     -0.43128075   
    194000   1.0071991      0.0039207829   0.54635632    -0.44965165   
    195000   1.0257889      0.0042970308   0.54405529    -0.47033593   
    196000   1.0966923      0.0032704509   0.64228463    -0.44222216   
    197000   0.9825474      0.0030361976   0.49235311    -0.47927709   
    198000   0.92244249     0.003329326    0.4640678     -0.44812534   
    199000   0.94278505     0.0032105941   0.47014639    -0.46216326   
    200000   1.0296677      0.0050395099   0.53537454    -0.48285239   
    201000   1.0079152      0.0032981996   0.53772673    -0.45898944   
    202000   0.99480248     0.0050723612   0.52696352    -0.45678559   
    203000   0.96614421     0.003714549    0.4973155     -0.45809377   
    204000   0.97675468     0.003886723    0.488569      -0.47733285   
    205000   0.94917365     0.0025922053   0.45499238    -0.4836349    
    206000   0.96270095     0.0046105946   0.47625038    -0.4757539    
    207000   1.0442637      0.0036331081   0.53289722    -0.49976355   
    208000   0.99010177     0.0040571947   0.46849624    -0.51060441   
    209000   1.0420497      0.0032011721   0.52802673    -0.50244468   
    210000   1.0307817      0.0040896607   0.51916633    -0.50016225   
    211000   1.0268268      0.0022140557   0.54756957    -0.46784804   
    212000   1.0105852      0.0041134371   0.50956691    -0.48978952   
    213000   0.97572707     0.0025579726   0.46622035    -0.49866531   
    214000   1.0238355      0.0025885207   0.52702499    -0.48543458   
    215000   1.0197385      0.0030727401   0.51748241    -0.49092565   
    216000   0.98171914     0.0059860154   0.46429839    -0.50651275   
    217000   0.95328108     0.0025312571   0.45992871    -0.48276037   
    218000   1.0166762      0.0048336674   0.5506794     -0.45470036   
    219000   1.0299322      0.0016944518   0.53404588    -0.48444266   
    220000   1.0483805      0.0035629073   0.51568974    -0.52104213   
    221000   1.115272       0.0036853473   0.58318117    -0.5196989    
    222000   1.0310925      0.0029577384   0.54224008    -0.47739587   
    223000   0.94663974     0.0044113475   0.44518471    -0.49093681   
    224000   0.96165891     0.0043204219   0.49474283    -0.45623098   
    225000   1.008833       0.0064733006   0.48501022    -0.51261351   
    226000   0.96328394     0.0039769145   0.42243905    -0.53014174   
    227000   1.0447706      0.0038468417   0.56505308    -0.46810895   
    228000   1.0446974      0.0059163896   0.57664263    -0.456447     
    229000   1.0602875      0.0020192746   0.57128276    -0.47722374   
    230000   0.97156544     0.0022460878   0.46055486    -0.5002154    
    231000   1.0234572      0.0043347872   0.48517837    -0.5269071    
    232000   1.0523748      0.0047604749   0.53357291    -0.50710885   
    233000   0.99843005     0.0034592085   0.48819873    -0.49913765   
    234000   0.93530955     0.0021830979   0.43479774    -0.49011948   
    235000   0.98411896     0.0034793768   0.47484687    -0.49833744   
    236000   1.0988845      0.0037311612   0.61090893    -0.47576571   
    237000   1.0628471      0.0036673526   0.56556602    -0.4854717    
    238000   0.97719107     0.0049772184   0.46789097    -0.49844243   
    239000   0.91892163     0.0021098492   0.42026899    -0.4884424    
    240000   0.9905526      0.0029863329   0.47718494    -0.50236151   
    241000   0.9257903      0.0091941472   0.39625677    -0.51924698   
    242000   0.97412993     0.0036107273   0.45771922    -0.50558704   
    243000   0.9493073      0.0022356635   0.44196481    -0.49679463   
    244000   0.94403949     0.0032488437   0.43245436    -0.50109581   
    245000   0.91223802     0.0019648715   0.40908708    -0.49301496   
    246000   0.99547273     0.0045364245   0.47985293    -0.504559     
    247000   1.0958289      0.002631821    0.57992197    -0.50373107   
    248000   1.005113       0.004897946    0.51057945    -0.48336564   
    249000   1.0974249      0.0046447893   0.56022816    -0.52500309   
    250000   0.96270516     0.0041893784   0.44764457    -0.50436387   
    251000   0.93549248     0.0027838833   0.45935496    -0.46574316   
    252000   0.94004914     0.0019526917   0.43361766    -0.49598649   
    253000   0.9933719      0.0024285819   0.49906773    -0.4832667    
    254000   1.0514254      0.0031548735   0.54028516    -0.4994577    
    255000   0.94616312     0.0040120972   0.40025401    -0.53539618   
    256000   0.98094388     0.0033377255   0.47020176    -0.49984275   
    257000   0.99330032     0.002444558    0.46440035    -0.5178633    
    258000   1.0290422      0.0045712716   0.49211322    -0.52549515   
    259000   1.0295778      0.0043973962   0.44327215    -0.57486591   
    260000   0.90023851     0.0061312088   0.34610759    -0.54412826   
    261000   1.0303628      0.0031767499   0.49275024    -0.52616413   
    262000   0.95189893     0.0089987075   0.4448699     -0.49645237   
    263000   0.9558768      0.0043731876   0.41144611    -0.53380984   
    264000   0.99063419     0.0036462842   0.4360781     -0.54354905   
    265000   1.038854       0.0047661992   0.49989099    -0.52742016   
    266000   0.97763097     0.0032927736   0.46612913    -0.50063926   
    267000   0.93037947     0.0063575621   0.40874344    -0.51129848   
    268000   0.97847377     0.0048058021   0.45836285    -0.50923898   
    269000   0.98174719     0.0043002104   0.45822487    -0.51261402   
    270000   1.051258       0.0045192533   0.53280096    -0.50677643   
    271000   1.0126791      0.0040199063   0.50830895    -0.49311818   
    272000   0.96021356     0.0038162768   0.44784434    -0.50170018   
    273000   1.0426257      0.0031023108   0.51017832    -0.52086264   
    274000   1.0081218      0.0019121789   0.49135851    -0.50556192   
    275000   0.9928363      0.0049940099   0.4611498     -0.52065499   
    276000   1.0377918      0.0022356078   0.55344051    -0.47282029   
    277000   0.90620361     0.0035392736   0.39719992    -0.49893476   
    278000   1.0392183      0.0036928011   0.53244181    -0.4952296    
    279000   0.97902884     0.0032546961   0.45087042    -0.51728032   
    280000   1.0375559      0.0056267843   0.55870982    -0.4673177    
    281000   1.0487257      0.0047971164   0.53929663    -0.49777654   
    282000   1.0426661      0.0031736033   0.53931832    -0.49176261   
    283000   0.93551324     0.0033344096   0.43734602    -0.48777263   
    284000   1.023236       0.002636303    0.53394251    -0.47792421   
    285000   1.0476906      0.0054850687   0.55776458    -0.47828505   
    286000   1.036529       0.0043703528   0.49443339    -0.53057864   
    287000   1.0168161      0.0036869135   0.47852827    -0.52698992   
    288000   0.93739353     0.0019874301   0.38322931    -0.54374874   
    289000   0.9958323      0.0030915397   0.47294454    -0.51182296   
    290000   1.0078837      0.002657938    0.44515971    -0.55152527   
    291000   0.9386738      0.0034698134   0.38232426    -0.54591982   
    292000   0.98882222     0.004532872    0.47237574    -0.50545957   
    293000   0.97737315     0.003369749    0.44391225    -0.52260119   
    294000   0.97209774     0.0021565906   0.45315415    -0.5081425    
    295000   1.0256358      0.005268546    0.46612171    -0.54811813   
    296000   0.88983711     0.0030500909   0.36105391    -0.51889612   
    297000   1.010834       0.0031952623   0.47424052    -0.52536198   
    298000   1.0743925      0.0041308441   0.56498693    -0.49746792   
    299000   0.9583763      0.0054312101   0.4185652     -0.52916247   
    300000   1.0240377      0.0038309711   0.5013771     -0.51128241   
    301000   1.0274763      0.0038322198   0.47276632    -0.54329356   
    302000   0.99970661     0.0054360099   0.50203831    -0.48656045   
    303000   1.0163968      0.0065362035   0.50010674    -0.50499671   
    304000   0.96403501     0.0053347909   0.46492825    -0.48839526   
    305000   1.0233173      0.0031307528   0.51631681    -0.49563029   
    306000   1.0081196      0.0056279518   0.50377163    -0.49314666   
    307000   1.0339138      0.002545882    0.52980316    -0.49262268   
    308000   0.9894298      0.0032801479   0.4661721     -0.51226403   
    309000   0.92650326     0.0052723449   0.35602202    -0.56018675   
    310000   1.0062957      0.0070956894   0.44268998    -0.5524246    
    311000   0.99305105     0.0034982073   0.4209585     -0.56105864   
    312000   1.0000154      0.0041503049   0.45690507    -0.53199903   
    313000   0.99407777     0.0061649655   0.44590544    -0.53712703   
    314000   0.94047577     0.003063545    0.43690092    -0.49312512   
    315000   1.0767058      0.0075908706   0.57819266    -0.48654973   
    316000   0.96066374     0.0048729989   0.47404678    -0.47594292   
    317000   0.95203007     0.0061757897   0.45818982    -0.48326214   
    318000   1.0391026      0.0040863491   0.55864864    -0.46890834   
    319000   1.0725065      0.006020831    0.56001096    -0.50057881   
    320000   1.0036904      0.0031823621   0.49227288    -0.50026538   
    321000   0.92971026     0.0028708709   0.40064167    -0.51873848   
    322000   1.0373553      0.0031749829   0.52643709    -0.49939205   
    323000   1.0645097      0.0031266202   0.5376852     -0.51499657   
    324000   0.94642374     0.005398445    0.4139475     -0.52196043   
    325000   1.0168283      0.0031141805   0.52171136    -0.48381888   
    326000   1.0755551      0.0068184496   0.57118254    -0.49242193   
    327000   0.9980589      0.0042133758   0.50646405    -0.48050531   
    328000   0.99581087     0.0028240584   0.53174495    -0.45300135   
    329000   1.0100682      0.0047609935   0.50836064    -0.49048459   
    330000   1.0811026      0.0038855604   0.56376596    -0.50532443   
    331000   1.0134578      0.0090212527   0.5109396     -0.49125758   
    332000   1.0414974      0.0033933244   0.55431634    -0.47560889   
    333000   1.0132952      0.0041104605   0.52013095    -0.48190537   
    334000   1.0294243      0.0032899178   0.52418815    -0.49379808   
    335000   0.95394757     0.003313638    0.44931165    -0.4940365    
    336000   1.0308539      0.0036159844   0.54514203    -0.47425794   
    337000   1.0358242      0.0037055236   0.55026585    -0.47404922   
    338000   1.0270018      0.0031810434   0.53831192    -0.4772787    
    339000   1.0275221      0.003661762    0.53488148    -0.48122368   
    340000   1.0209647      0.0026441583   0.54729009    -0.46233056   
    341000   0.99540173     0.0028714049   0.50618275    -0.47815896   
    342000   0.95887511     0.0039621751   0.46686813    -0.48135281   
    343000   1.0625672      0.0040458179   0.58311408    -0.46764679   
    344000   1.1092205      0.0035094957   0.60635982    -0.49053596   
    345000   0.93480555     0.0042591604   0.47458957    -0.44982925   
    346000   1.0179921      0.0037368012   0.50946544    -0.4972156    
    347000   1.1043674      0.0027317931   0.60552109    -0.4865756    
    348000   1.0042557      0.0022742193   0.50730574    -0.4857916    
    349000   1.0139447      0.0053541888   0.52295179    -0.47972683   
    350000   0.8791906      0.0027747822   0.37758726    -0.49183455   
    351000   0.99125824     0.0034646068   0.50084176    -0.4794025    
    352000   1.0668997      0.0045107992   0.57335258    -0.48169271   
    353000   1.0066071      0.0027254618   0.50784332    -0.48757929   
    354000   0.90758823     0.0031743868   0.41061371    -0.48689021   
    355000   0.97665916     0.0051972645   0.48094932    -0.48485806   
    356000   1.0048165      0.0024225191   0.51426449    -0.47938739   
    357000   0.9821008      0.004158687    0.49373674    -0.47745183   
    358000   0.93227229     0.0041789395   0.4279859     -0.49392782   
    359000   1.008725       0.004108359    0.51444961    -0.48306738   
    360000   0.97328438     0.0034967894   0.44523259    -0.51723752   
    361000   1.0709354      0.0028416244   0.55085675    -0.50817932   
    362000   1.0527195      0.0045261896   0.52047083    -0.52055178   
    363000   1.0319734      0.0034286595   0.51057627    -0.50993079   
    364000   0.94440152     0.0017517539   0.44480694    -0.48910123   
    365000   0.95908419     0.005674435    0.44264869    -0.50577901   
    366000   1.0093608      0.0037690752   0.47898289    -0.51916282   
    367000   1.0401302      0.0039135535   0.5001997     -0.52837347   
    368000   0.95355419     0.0019231971   0.46060573    -0.48235341   
    369000   0.87282169     0.002720366    0.39064426    -0.47247941   
    370000   0.94974903     0.0032648895   0.43994255    -0.49925371   
    371000   1.0519886      0.0019533564   0.53931534    -0.50098451   
    372000   1.0258017      0.0033657629   0.49701351    -0.51739037   
    373000   0.98560607     0.003105371    0.45139337    -0.52326152   
    374000   0.96631987     0.0036658726   0.40688347    -0.54869952   
    375000   1.0439512      0.0031082337   0.5414521     -0.49089961   
    376000   1.0103618      0.0027180705   0.47908133    -0.52005421   
    377000   0.96048133     0.0035439059   0.38073988    -0.56906943   
    378000   1.0312972      0.0047362152   0.49651293    -0.52332542   
    379000   0.99372074     0.0029937511   0.46763234    -0.51504706   
    380000   0.95815866     0.002074944    0.42657485    -0.5209376    
    381000   0.9567077      0.0058718245   0.39092776    -0.55514985   
    382000   0.98993802     0.0060068334   0.45784304    -0.52109567   
    383000   1.0528024      0.0034618637   0.48980297    -0.55130158   
    384000   1.0290172      0.0049912081   0.48191999    -0.53566367   
    385000   0.98013667     0.0061397888   0.438185      -0.53106126   
    386000   1.0494342      0.00178886     0.50766085    -0.53011298   
    387000   0.94766467     0.0031607333   0.39932953    -0.53780553   
    388000   1.0038008      0.0037060081   0.42237699    -0.57027042   
    389000   0.97108171     0.0028650888   0.43066479    -0.52962713   
    390000   1.0002614      0.003341532    0.45731612    -0.5318313    
    391000   1.100144       0.0029370264   0.55805464    -0.52986555   
    392000   1.0108417      0.004013374    0.48688045    -0.51272971   
    393000   1.0094069      0.0025768433   0.47046157    -0.52772965   
    394000   1.0381145      0.0037712313   0.52836961    -0.4982103    
    395000   1.0137977      0.0041188465   0.47929121    -0.52324207   
    396000   0.9430326      0.0027600252   0.4034773     -0.52907716   
    397000   0.99939105     0.0043005711   0.46481972    -0.52346698   
    398000   0.98544792     0.0053754217   0.43880967    -0.53568884   
    399000   0.93270532     0.0023268647   0.41945464    -0.50288729   
    400000   1.0789618      0.0035394529   0.54654656    -0.52042676   
    401000   1.058598       0.0072261996   0.52850779    -0.51832801   
    402000   0.974785       0.0018171993   0.43438166    -0.52957239   
    403000   1.0595404      0.0024622716   0.51499524    -0.53277245   
    404000   1.0003819      0.0038032081   0.48780224    -0.5014643    
    405000   1.0766112      0.0046674911   0.54194758    -0.52270123   
    406000   1.0246123      0.002543443    0.4625629     -0.55066477   
    407000   1.000376       0.0036368054   0.45485533    -0.53440535   
    408000   1.0123139      0.0024548236   0.46701333    -0.53405268   
    409000   1.0878455      0.0051556703   0.50531274    -0.57044555   
    410000   0.97227869     0.005896098    0.40593409    -0.55554151   
    411000   0.95173851     0.0055611765   0.42129982    -0.51986382   
    412000   0.97019866     0.0022739603   0.40206152    -0.55735716   
    413000   1.0421838      0.0035005658   0.47574431    -0.5548597    
    414000   1.0069954      0.0021542154   0.42240251    -0.57340401   
    415000   0.97496343     0.0040677036   0.39620591    -0.5679246    
    416000   1.069472       0.0043501307   0.46306689    -0.5945221    
    417000   0.95056743     0.0037991981   0.35936473    -0.58064084   
    418000   1.0288711      0.0025246548   0.4493858     -0.56805338   
    419000   0.93631831     0.0030367575   0.36159542    -0.56431935   
    420000   0.97922236     0.0048100618   0.43386568    -0.53447643   
    421000   1.0819971      0.0052145775   0.51027482    -0.55970006   
    422000   1.0199774      0.0031689008   0.50630006    -0.50234422   
    423000   0.95689206     0.0038054101   0.41266352    -0.53359641   
    424000   0.99455959     0.0032408819   0.44123059    -0.54227834   
    425000   1.0370464      0.0037693702   0.52774766    -0.49777601   
    426000   1.0119568      0.0026227316   0.47003335    -0.53067947   
    427000   0.94451095     0.0033380401   0.45380254    -0.48021385   
    428000   1.0239524      0.0021672317   0.52909079    -0.48348438   
    429000   0.90777618     0.0026148936   0.41110825    -0.48658152   
    430000   0.98004384     0.00402066     0.49467796    -0.47447651   
    431000   0.96161174     0.0020459583   0.48301517    -0.467912     
    432000   1.0568107      0.0045581357   0.54286619    -0.50220214   
    433000   0.90056315     0.0026259288   0.36249548    -0.52806141   
    434000   0.97252683     0.0049681167   0.5338585     -0.42786248   
    435000   1.0428848      0.0047130266   0.57493084    -0.45636634   
    436000   0.99988482     0.0025684964   0.51897413    -0.46980086   
    437000   1.009356       0.0041167657   0.52131372    -0.47682722   
    438000   0.87202823     0.0028054281   0.40417045    -0.45816858   
    439000   1.0370805      0.0039588005   0.53463327    -0.49092409   
    440000   0.98414774     0.0022397165   0.49341679    -0.47979598   
    441000   1.0038463      0.005574821    0.48556113    -0.50713132   
    442000   0.97954909     0.004198394    0.45619621    -0.512469     
    443000   1.0817843      0.0027837023   0.53377204    -0.53599246   
    444000   0.95282325     0.0033109485   0.40720051    -0.53503582   
    445000   0.98128568     0.0021101347   0.46757519    -0.50280731   
    446000   1.0385733      0.005258298    0.55674923    -0.47028434   
    447000   1.0892521      0.0056235115   0.57102621    -0.50612309   
    448000   0.9416427      0.0023454267   0.40323277    -0.52794724   
    449000   0.90105064     0.0033756095   0.34204705    -0.54899192   
    450000   1.0004991      0.0034979145   0.44576187    -0.54362061   
    451000   0.93523084     0.0032529774   0.39137723    -0.53346215   
    452000   1.0332281      0.0036477629   0.51951137    -0.50223645   
    453000   1.0396827      0.0035214194   0.49048013    -0.5376505    
    454000   0.98414205     0.0021919572   0.42560686    -0.54760028   
    455000   0.9857544      0.0031458668   0.45429309    -0.52050848   
    456000   0.95720142     0.0062109194   0.40583797    -0.54072788   
    457000   1.1231113      0.0046936838   0.51259835    -0.59803394   
    458000   1.0809778      0.0041415056   0.49756183    -0.57140514   
    459000   1.0080752      0.0048105983   0.40812438    -0.58875      
    460000   0.90888025     0.0029054233   0.34372624    -0.55505535   
    461000   1.0337791      0.0075807876   0.38674199    -0.63555072   
    462000   0.95854424     0.0021205415   0.35441714    -0.59347661   
    463000   0.96071136     0.0026496832   0.35837153    -0.59166527   
    464000   0.95561261     0.0042080495   0.35354108    -0.59145362   
    465000   0.99038214     0.0026981276   0.3927487     -0.5866292    
    466000   0.9523714      0.0021920426   0.3445836     -0.59720589   
    467000   0.97270289     0.0060674803   0.42275199    -0.53914309   
    468000   1.0095822      0.0036164508   0.42494038    -0.57342424   
    469000   1.0533699      0.0043332946   0.47106002    -0.57060574   
    470000   0.98797876     0.0023191837   0.41102716    -0.56597406   
    471000   0.99954206     0.0028965799   0.42040784    -0.5680282    
    472000   1.0160225      0.0030789523   0.46497253    -0.53976087   
    473000   1.0908609      0.0033821749   0.49125111    -0.58748915   
    474000   1.0519578      0.0047381382   0.4625235     -0.57774584   
    475000   1.0400215      0.00402419     0.41953744    -0.60892829   
    476000   1.0202617      0.006710504    0.42208197    -0.58684348   
    477000   1.0333798      0.0034078455   0.47276425    -0.54913358   
    478000   0.93440226     0.0040676575   0.32608497    -0.59793505   
    479000   1.0054832      0.0035262924   0.43248364    -0.56182756   
    480000   1.0257632      0.0046486226   0.44617048    -0.56819536   
    481000   1.0313855      0.0036416227   0.46775964    -0.55216601   
    482000   1.0893782      0.0054988232   0.53311191    -0.5441621    
    483000   0.96429294     0.0024000771   0.35287369    -0.60070488   
    484000   1.0156551      0.0041747564   0.42685622    -0.57751386   
    485000   1.0096152      0.0092082473   0.37302408    -0.62537321   
    486000   1.0038179      0.002480967    0.4123036     -0.58036075   
    487000   0.98616154     0.0032510325   0.34551549    -0.62968869   
    488000   0.98996432     0.0027006153   0.33874165    -0.64022306   
    489000   0.99635659     0.003511988    0.31127717    -0.67400879   
    490000   1.0460487      0.0029634307   0.42824335    -0.60618257   
    491000   1.0006776      0.0055626553   0.35294436    -0.63661462   
    492000   0.97308256     0.0036960946   0.37692317    -0.58534736   
    493000   0.98802592     0.0024994782   0.34998397    -0.62706388   
    494000   0.99343472     0.004630304    0.3870299     -0.59536665   
    495000   0.98860104     0.0021015366   0.38976727    -0.58784931   
    496000   0.93320904     0.0061086525   0.32283331    -0.60000675   
    497000   1.0146763      0.0039440208   0.41206002    -0.5913421    
    498000   1.0003826      0.0052804886   0.38918595    -0.60008126   
    499000   1.0361141      0.0049680214   0.41613441    -0.60846733   
    500000   0.96525215     0.0031952886   0.32851663    -0.6260105    
    501000   1.0616643      0.0030274282   0.45771112    -0.59215688   
    502000   1.0315294      0.0036604298   0.39593656    -0.62413143   
    503000   0.99584713     0.0030075225   0.39728251    -0.58749965   
    504000   0.98340999     0.0036237491   0.36872131    -0.6037619    
    505000   0.96666393     0.0030032153   0.34395389    -0.61196932   
    506000   0.99711639     0.0006767794   0.40234631    -0.58369101   
    507000   1.0135873      0.003026513    0.38437221    -0.61795304   
    508000   1.0037301      0.0038390074   0.3919837     -0.60059387   
    509000   1.0360963      0.0039968374   0.37293994    -0.65164414   
    510000   1.0078636      0.0058837212   0.34180401    -0.65486107   
    511000   1.0142104      0.005311772    0.36505023    -0.63789114   
    512000   1.083055       0.0032027227   0.46330724    -0.60771379   
    513000   1.0338896      0.0033838848   0.39513989    -0.62726201   
    514000   1.0925298      0.0031350116   0.47436494    -0.60602563   
    515000   0.98293954     0.0031061958   0.35001688    -0.62200111   
    516000   1.0053747      0.0032893687   0.39748963    -0.59671428   
    517000   0.99945799     0.0044095776   0.38317971    -0.6051732    
    518000   1.036893       0.0060316659   0.41132756    -0.61404446   
    519000   0.99534874     0.0050645288   0.35271533    -0.63157398   
    520000   1.085026       0.0024773313   0.48375026    -0.58921992   
    521000   0.90940569     0.0041376974   0.34743439    -0.5518668    
    522000   0.92885227     0.0041778391   0.35199638    -0.56653531   
    523000   1.0393956      0.0026903796   0.44324994    -0.58459681   
    524000   1.0917637      0.0049417279   0.49171431    -0.58791872   
    525000   0.90104116     0.0037866216   0.31307584    -0.57795375   
    526000   0.98364729     0.0021104597   0.33178486    -0.64093301   
    527000   1.0240534      0.0029739003   0.44053689    -0.5721381    
    528000   1.0017758      0.0035932233   0.38538063    -0.60526435   
    529000   0.94573666     0.0054430315   0.34203194    -0.59319654   
    530000   0.98351085     0.0029125738   0.37270592    -0.59987704   
    531000   1.0176055      0.0048005275   0.40506654    -0.60123219   
    532000   1.0309616      0.0034989956   0.40539159    -0.61411492   
    533000   0.97908837     0.0025137807   0.34532515    -0.62288446   
    534000   0.92952386     0.0037370522   0.35015045    -0.56904537   
    535000   1.081824       0.0034643561   0.48197377    -0.58782995   
    536000   0.99560647     0.0040677388   0.39606171    -0.58848247   
    537000   1.0654695      0.0032930414   0.48857115    -0.56505976   
    538000   1.0412449      0.0028573123   0.44479324    -0.58488229   
    539000   0.95182962     0.004421021    0.38942552    -0.55182821   
    540000   1.0331189      0.0029477224   0.49983133    -0.52180845   
    541000   1.0456707      0.0047425729   0.54473358    -0.4893186    
    542000   1.0077709      0.0043924402   0.47594662    -0.52062681   
    543000   1.0162912      0.0018915913   0.47985388    -0.52514524   
    544000   0.98148952     0.003607396    0.43977542    -0.53080866   
    545000   0.99789554     0.0031782887   0.44519211    -0.5416157    
    546000   0.99496488     0.0031612298   0.4209616     -0.56294811   
    547000   0.99577264     0.0037658431   0.43784841    -0.54686009   
    548000   1.0685213      0.0048871122   0.51626192    -0.5403869    
    549000   1.0171849      0.0032634874   0.4626363     -0.54324658   
    550000   1.0994203      0.0037060187   0.57066842    -0.51653609   
    551000   0.95781242     0.0034185779   0.37525296    -0.5719171    
    552000   0.96045736     0.0074040034   0.39368161    -0.556104     
    553000   1.040898       0.0023164153   0.45848179    -0.5708507    
    554000   1.0197407      0.0051772534   0.42619282    -0.5822174    
    555000   1.0147329      0.0019820435   0.41716841    -0.58628972   
    556000   1.0186887      0.0047944948   0.39721255    -0.6101574    
    557000   1.0772314      0.0051407506   0.45015486    -0.61510733   
    558000   0.96027333     0.0037452422   0.36168537    -0.58791825   
    559000   0.97795269     0.002853005    0.36734826    -0.59973829   
    560000   1.0172574      0.0024997716   0.40587245    -0.60008205   
    561000   1.0309601      0.0050345793   0.44478228    -0.57472266   
    562000   0.98483666     0.0029492915   0.37300126    -0.60089277   
    563000   1.0095909      0.0021694524   0.39353803    -0.60483523   
    564000   1.0865626      0.0039547456   0.46527937    -0.60921026   
    565000   1.0010548      0.0054288823   0.39154025    -0.5983917    
    566000   1.0435528      0.0058916968   0.42824149    -0.60371633   
    567000   0.9029203      0.0036959573   0.32539999    -0.56748787   
    568000   0.9672967      0.0024689358   0.37296674    -0.58358222   
    569000   0.96113243     0.0025157471   0.32826331    -0.62218988   
    570000   1.0295063      0.0037655683   0.38612837    -0.63193897   
    571000   0.99667071     0.006279666    0.35819045    -0.62740614   
    572000   0.98772201     0.004116089    0.36065087    -0.61609645   
    573000   1.0564598      0.0022295676   0.44572019    -0.59900115   
    574000   1.0088553      0.0057823241   0.38563165    -0.61201411   
    575000   1.0909739      0.0024233825   0.46324779    -0.6156042    
    576000   0.97845048     0.0030371126   0.34715825    -0.62042057   
    577000   1.0377508      0.0034321911   0.4458623     -0.58035796   
    578000   0.98056616     0.003738015    0.40522185    -0.56444913   
    579000   0.94523154     0.0020600345   0.36780512    -0.56692385   
    580000   0.91916895     0.0019404206   0.33967865    -0.56927731   
    581000   0.97238761     0.0036146445   0.37337492    -0.58820838   
    582000   1.058174       0.003309766    0.44131951    -0.605097     
    583000   1.0761947      0.006542       0.45536526    -0.60887175   
    584000   0.92852585     0.0060265958   0.2930791     -0.6251298    
    585000   0.87954977     0.0024664495   0.25169403    -0.61808296   
    586000   1.0364123      0.004737598    0.46106528    -0.56383133   
    587000   1.0651996      0.0035485737   0.48684448    -0.56651955   
    588000   1.0413944      0.0049710979   0.44113567    -0.58868767   
    589000   1.0880663      0.0036771678   0.49454851    -0.58142816   
    590000   0.97951176     0.0050354358   0.43685608    -0.53177221   
    591000   1.0835491      0.0040914575   0.4353462     -0.63616348   
    592000   0.86764645     0.0017570791   0.22505303    -0.63295291   
    593000   1.0479943      0.0031222728   0.42858173    -0.60776819   
    594000   0.98593538     0.0035949395   0.3767626     -0.59821795   
    595000   0.90735414     0.0030165262   0.32014768    -0.57712475   
    596000   1.021176       0.0038633304   0.43396964    -0.57586      
    597000   1.0597047      0.0033065137   0.47631775    -0.57161248   
    598000   1.0067903      0.004884614    0.41758075    -0.57802297   
    599000   1.022403       0.0038959584   0.46418284    -0.54686013   
    600000   1.0947277      0.0043713216   0.51771738    -0.56484673   
    601000   1.002153       0.0043203973   0.42704887    -0.56396908   
    602000   1.0137178      0.0033907228   0.44237705    -0.56007724   
    603000   0.95391381     0.0033136494   0.33392749    -0.60938727   
    604000   0.9129233      0.0015869974   0.30287558    -0.59990413   
    605000   0.9509627      0.0031890438   0.34477145    -0.595625     
    606000   0.98346181     0.0040231276   0.38589503    -0.58663942   
    607000   0.99035676     0.003483138    0.39415527    -0.58519752   
    608000   1.0548216      0.0041141762   0.43934985    -0.60375147   
    609000   0.98060014     0.0026871337   0.3809703     -0.58873428   
    610000   0.97235321     0.0062625806   0.3365462     -0.62500309   
    611000   0.95180403     0.0032579721   0.33682606    -0.60440237   
    612000   1.0092256      0.0049796368   0.40270438    -0.59530757   
    613000   0.97531714     0.006388198    0.34593689    -0.61854339   
    614000   1.0431247      0.0053601319   0.43471055    -0.59682387   
    615000   1.0681626      0.0045577244   0.40843085    -0.64786326   
    616000   1.0518067      0.0042033982   0.42389835    -0.61622165   
    617000   0.92616797     0.0012765162   0.30309111    -0.6127861    
    618000   1.020204       0.0027332696   0.36589357    -0.64297481   
    619000   1.0610406      0.0089527793   0.42856905    -0.62068216   
    620000   0.98356754     0.0035358446   0.36430536    -0.60833366   
    621000   0.96696511     0.003591323    0.35565342    -0.60056763   
    622000   0.89981523     0.0026616283   0.28269506    -0.60712222   
    623000   0.93457363     0.0017088894   0.31010314    -0.61408634   
    624000   1.0511749      0.0057310169   0.43734798    -0.60214717   
    625000   1.0107745      0.0035976449   0.3895183     -0.61002538   
    626000   1.0413756      0.0034399716   0.43974744    -0.59005732   
    627000   1.0446271      0.0035811847   0.42522912    -0.60779098   
    628000   1.0236203      0.003477063    0.34853296    -0.66371377   
    629000   0.96825314     0.0026084214   0.33989841    -0.61759635   
    630000   1.0298157      0.0028389342   0.36307281    -0.65530045   
    631000   0.97641783     0.0036115034   0.31571647    -0.64985227   
    632000   0.99184102     0.0030443532   0.36518531    -0.61563525   
    633000   0.99300167     0.0036710841   0.35392564    -0.62804268   
    634000   0.99442468     0.0027619262   0.35019707    -0.63317845   
    635000   1.004008       0.0016688867   0.3980447     -0.59480764   
    636000   1.0285777      0.0022574267   0.33632949    -0.68081954   
    637000   1.0275625      0.0035837727   0.38365694    -0.63248818   
    638000   1.0300261      0.0024420643   0.37695793    -0.64162348   
    639000   1.0080319      0.003563071    0.31327307    -0.68355848   
    640000   0.96523193     0.0039852286   0.26513903    -0.6893681    
    641000   1.0662659      0.0036049737   0.41720876    -0.63720976   
    642000   0.90697531     0.0018538238   0.25884325    -0.63805456   
    643000   1.0223207      0.0048607979   0.37665614    -0.63430542   
    644000   0.93493203     0.0027626854   0.27638542    -0.64815848   
    645000   0.99609046     0.002855678    0.34177061    -0.64325218   
    646000   1.0031065      0.0048939312   0.3695331     -0.62242774   
    647000   1.0337972      0.0062179858   0.41811561    -0.60419499   
    648000   1.011857       0.002610367    0.35620571    -0.64440847   
    649000   0.95009311     0.0059086904   0.33077626    -0.60876026   
    650000   0.98731678     0.0038862604   0.36417442    -0.61217217   
    651000   0.94258849     0.0023249519   0.30867377    -0.62344151   
    652000   1.0525809      0.0049865282   0.38661761    -0.65426792   
    653000   1.0344669      0.0036871879   0.40433191    -0.61864094   
    654000   1.050059       0.0062667963   0.39798475    -0.64040688   
    655000   1.006963       0.0069279002   0.29581833    -0.69995623   
    656000   1.0452677      0.0040028903   0.36503108    -0.66862256   
    657000   1.0385808      0.0036536559   0.38957527    -0.63746574   
    658000   0.95110292     0.0028410341   0.31518621    -0.6253489    
    659000   1.1304208      0.0029895104   0.48613495    -0.63172566   
    660000   1.0408467      0.0023815793   0.38471973    -0.64456197   
    661000   1.1055404      0.0030334024   0.50315439    -0.59010222   
    662000   1.0406842      0.0039254881   0.39613964    -0.63298136   
    663000   1.0328552      0.0044684264   0.44697917    -0.57439983   
    664000   0.91354777     0.0019905806   0.32163142    -0.58176582   
    665000   1.0097746      0.0049325781   0.39470139    -0.60385348   
    666000   0.97239491     0.0028109759   0.34671125    -0.61487927   
    667000   0.98299486     0.0046709244   0.31655028    -0.65552242   
    668000   0.97651952     0.0038202127   0.32565112    -0.64001819   
    669000   1.1011761      0.0033692522   0.50200762    -0.5869332    
    670000   1.0297048      0.0031381102   0.42343128    -0.59483239   
    671000   0.99104193     0.0055494072   0.40047344    -0.57955691   
    672000   0.9592869      0.0028250456   0.35998306    -0.58864509   
    673000   0.96407463     0.0035256324   0.34423489    -0.6091278    
    674000   1.0259973      0.0062419885   0.39184942    -0.62274796   
    675000   1.0278386      0.0039082391   0.38878905    -0.62762912   
    676000   1.0072593      0.0042566002   0.36270786    -0.63335969   
    677000   0.94826172     0.0047671999   0.34282271    -0.59490277   
    678000   0.99919113     0.0042034901   0.38233472    -0.60575429   
    679000   0.9733037      0.0019307555   0.36215684    -0.60033237   
    680000   1.0087259      0.0057029929   0.38721392    -0.61030391   
    681000   1.0147983      0.0034147721   0.38488309    -0.61863969   
    682000   0.94977236     0.0034386754   0.31624006    -0.62297927   
    683000   0.98658039     0.0025874902   0.38469177    -0.59092662   
    684000   0.95140042     0.0034014723   0.31197097    -0.62885834   
    685000   1.0662717      0.0031034501   0.49864759    -0.55577665   
    686000   1.0683122      0.0029375593   0.48112959    -0.57531244   
    687000   0.99184843     0.0054156903   0.41364641    -0.56718148   
    688000   1.0350967      0.0055666386   0.42846237    -0.5951332    
    689000   1.0638277      0.0060098415   0.44836469    -0.60364267   
    690000   1.0520374      0.0059097539   0.41975853    -0.62058952   
    691000   0.97848719     0.0081298746   0.33887615    -0.62873896   
    692000   0.9484753      0.001934705    0.28481976    -0.65311692   
    693000   0.91033486     0.0035922846   0.23899119    -0.66122883   
    694000   0.99147157     0.0028042429   0.3571509     -0.62330432   
    695000   0.98506075     0.0046906072   0.4133546     -0.56076103   
    696000   1.0501051      0.0050150698   0.44437431    -0.59406299   
    697000   1.0433409      0.0048536127   0.42524123    -0.60650698   
    698000   1.0274883      0.0046335998   0.37704375    -0.63902797   
    699000   1.1068573      0.0068308529   0.46213054    -0.63242837   
    700000   0.99461959     0.0033591801   0.37623205    -0.60733621   
    701000   0.99910535     0.0042561757   0.35452414    -0.63348004   
    702000   0.98516769     0.0039744611   0.37535003    -0.59887135   
    703000   1.0118454      0.0030450368   0.42643234    -0.57417033   
    704000   0.99967968     0.0020393767   0.38850326    -0.60006887   
    705000   0.94654011     0.0027899544   0.32928216    -0.60674083   
    706000   0.989194       0.0026124643   0.39458211    -0.58362085   
    707000   1.118834       0.0051269959   0.53426054    -0.57214201   
    708000   1.0196867      0.0032745403   0.46681964    -0.54153723   
    709000   1.0446943      0.0034997784   0.4956137     -0.53747286   
    710000   0.9940939      0.003063525    0.45064625    -0.53240216   
    711000   0.93805245     0.0024202579   0.37951245    -0.54811719   
    712000   0.98448108     0.003248531    0.41564033    -0.55790208   
    713000   1.0320517      0.0024037455   0.45050459    -0.57007986   
    714000   0.97793466     0.0029791099   0.42026849    -0.54680023   
    715000   1.0079997      0.0035430882   0.4379952     -0.5588045    
    716000   0.98208118     0.0032519049   0.3749058     -0.59626337   
    717000   0.93085283     0.0019986023   0.32739577    -0.59311425   
    718000   0.93886128     0.0025562713   0.31958684    -0.60884265   
    719000   0.97027537     0.003648001    0.36752047    -0.59197406   
    720000   1.0573291      0.0047179685   0.44494494    -0.60063602   
    721000   1.1143945      0.0027794637   0.50539542    -0.59661694   
    722000   0.91332422     0.0024174848   0.28445671    -0.61871946   
    723000   1.0369069      0.0042083942   0.3896548     -0.63573093   
    724000   0.92591933     0.0027854921   0.3264392     -0.58919213   
    725000   0.98457825     0.0074598109   0.37423784    -0.59940065   
    726000   1.0002461      0.0024320085   0.45601667    -0.53311562   
    727000   1.0308903      0.0039338368   0.4393919     -0.58004404   
    728000   1.0336653      0.0040027005   0.47551055    -0.54666957   
    729000   1.056356       0.0049695062   0.45860231    -0.58601645   
    730000   1.0373763      0.0033274911   0.45148694    -0.57436296   
    731000   1.0227386      0.0053460638   0.43382538    -0.57754946   
    732000   0.91070462     0.0038186509   0.3078513     -0.59273438   
    733000   1.0068473      0.0039099532   0.40462034    -0.59103981   
    734000   0.95262684     0.0031834926   0.36607388    -0.57596822   
    735000   1.0594842      0.0021759357   0.47048052    -0.57723166   
    736000   1.0697567      0.0027778777   0.48098104    -0.57688948   
    737000   1.0094565      0.0035691621   0.40237431    -0.59586597   
    738000   0.91794768     0.0032887412   0.36078941    -0.54695885   
    739000   1.0486958      0.0037781179   0.45922111    -0.57782256   
    740000   0.98549071     0.002744787    0.40205899    -0.57248182   
    741000   0.99620089     0.0013337743   0.3994614     -0.58567058   
    742000   0.95609782     0.0043567132   0.35445913    -0.59101538   
    743000   1.0106491      0.0021001271   0.39931761    -0.6001021    
    744000   0.90941177     0.0037845745   0.31283386    -0.58647333   
    745000   1.0033092      0.0034506079   0.35806153    -0.63409982   
    746000   1.01463        0.0043097001   0.40832295    -0.59503334   
    747000   0.95649951     0.00055519648  0.3325195     -0.61335223   
    748000   0.88464955     0.0016294409   0.32648046    -0.54833965   
    749000   1.0460837      0.0034394714   0.41700312    -0.61745745   
    750000   1.0148082      0.005115876    0.38613845    -0.6173941    
    751000   1.0275097      0.0044156079   0.40668372    -0.60940924   
    752000   1.0300912      0.0038579323   0.41644007    -0.60220568   
    753000   1.0638807      0.0027090159   0.46364647    -0.58841334   
    754000   0.97642297     0.0012403771   0.35483426    -0.61073956   
    755000   0.98139864     0.0050731557   0.34239255    -0.62810167   
    756000   0.93911884     0.009776163    0.38341599    -0.5452682    
    757000   1.0775865      0.0058444604   0.44502738    -0.6205859    
    758000   0.97218887     0.0065288915   0.36703955    -0.59434722   
    759000   0.97480894     0.0031844643   0.38495732    -0.57902042   
    760000   1.0241857      0.004847203    0.4213215     -0.59148437   
    761000   1.0344567      0.0031066051   0.44647309    -0.57648966   
    762000   0.96925135     0.0046233712   0.38934662    -0.56913527   
    763000   1.0417155      0.0037819018   0.43613212    -0.59400873   
    764000   0.9616483      0.006832651    0.32035042    -0.6306129    
    765000   0.97016081     0.0031766147   0.35312992    -0.60625132   
    766000   1.0300406      0.0048210756   0.38343238    -0.63516336   
    767000   0.93229406     0.0013781831   0.31025372    -0.61168151   
    768000   1.0759745      0.0073393132   0.47189306    -0.5921262    
    769000   1.0535458      0.0044076933   0.4162054     -0.62563431   
    770000   0.92747762     0.0039567991   0.31836098    -0.59881134   
    771000   0.99975968     0.0032630752   0.35939085    -0.62926039   
    772000   0.98377938     0.001831256    0.37950773    -0.59334077   
    773000   1.0356004      0.0021963361   0.42839124    -0.59570247   
    774000   1.0287062      0.0054927561   0.37897403    -0.63830212   
    775000   1.1074695      0.0032513939   0.46214351    -0.63302074   
    776000   0.96007889     0.0030829762   0.34524405    -0.6041673    
    777000   0.96259624     0.0090471327   0.39730094    -0.55459979   
    778000   0.97691984     0.0035965644   0.41318495    -0.55288022   
    779000   0.98267401     0.0084036097   0.44300515    -0.52875026   
    780000   1.0048524      0.0025098491   0.45917857    -0.53450879   
    781000   0.94926446     0.003191459    0.38380282    -0.55491426   
    782000   1.0342245      0.0064064622   0.44324839    -0.57948472   
    783000   0.92150632     0.0019860173   0.32729427    -0.58397309   
    784000   0.96135195     0.0041656527   0.38539711    -0.56527315   
    785000   1.0085106      0.0021194146   0.42092213    -0.57638282   
    786000   0.94610753     0.0037695731   0.3708499     -0.56474532   
    787000   0.96833952     0.0033649343   0.42977709    -0.52780311   
    788000   1.0185168      0.0040162666   0.48307096    -0.52412895   
    789000   1.0506121      0.0021500819   0.49067837    -0.54826031   
    790000   1.1066634      0.0026194568   0.57564767    -0.51871943   
    791000   1.0508502      0.003130996    0.49206976    -0.54710429   
    792000   1.0501637      0.0022207927   0.4916111     -0.5468841    
    793000   0.97251535     0.0038101247   0.38973787    -0.57197175   
    794000   0.97011541     0.0033369404   0.40207004    -0.55726632   
    795000   0.99494349     0.0040583708   0.42218858    -0.56169998   
    796000   1.0680886      0.0046717713   0.49792644    -0.55829447   
    797000   0.95310634     0.0037185294   0.39055938    -0.5519569    
    798000   1.0626949      0.0062982017   0.47512803    -0.57575911   
    799000   1.004746       0.005006615    0.44751101    -0.54607114   
    800000   1.0244764      0.0028353512   0.47550278    -0.53759054   
    801000   0.9799975      0.0027684221   0.42146433    -0.5476443    
    802000   1.0261002      0.0028070786   0.46188633    -0.55281273   
    803000   0.90916857     0.0012072194   0.38577007    -0.51329663   
    804000   0.97846708     0.0048598621   0.42671071    -0.54088452   
    805000   1.0975828      0.0045187008   0.5646131     -0.52077431   
    806000   1.007862       0.0033444661   0.45782542    -0.53883814   
    807000   1.0641519      0.0040127491   0.53732907    -0.51499892   
    808000   1.0708461      0.0032511211   0.55579715    -0.50315063   
    809000   1.0862441      0.0052927051   0.53199536    -0.54217938   
    810000   1.0379823      0.0053160271   0.43057218    -0.59587698   
    811000   0.9271936      0.0025314165   0.41093609    -0.50595536   
    812000   0.96131004     0.004430519    0.4106863     -0.53994252   
    813000   1.0564494      0.0036789563   0.52652744    -0.51818363   
    814000   0.95644662     0.0044645215   0.38441044    -0.561409     
    815000   1.0663156      0.0045152273   0.55059815    -0.50386949   
    816000   1.0559973      0.0032673814   0.49337539    -0.55088859   
    817000   0.88104267     0.0037236358   0.31738293    -0.55387038   
    818000   0.93486066     0.0021357976   0.33771971    -0.58675361   
    819000   1.0624774      0.0046136893   0.50387214    -0.54679994   
    820000   1.0483178      0.0044318836   0.42896007    -0.60770972   
    821000   0.93079664     0.0080066167   0.39519529    -0.52525917   
    822000   1.0092825      0.0019030176   0.44376407    -0.55430423   
    823000   1.0489209      0.0038381637   0.48538448    -0.55188173   
    824000   0.88272023     0.0033990327   0.31916588    -0.55374634   
    825000   1.0685126      0.0028610641   0.49423984    -0.56240039   
    826000   1.0414323      0.0043751215   0.4603632     -0.56949764   
    827000   0.90406121     0.0054943378   0.30710429    -0.58691179   
    828000   0.98835179     0.0048920304   0.41428253    -0.56308757   
    829000   1.013543       0.007493823    0.39288728    -0.60939415   
    830000   0.96144816     0.0077735187   0.35730618    -0.59345922   
    831000   0.90023398     0.0038763719   0.30594964    -0.58428175   
    832000   0.98225706     0.0031656066   0.42594022    -0.54540288   
    833000   1.0180448      0.0044593748   0.43295076    -0.57378244   
    834000   1.0046909      0.0045341607   0.39336908    -0.60015855   
    835000   0.95393932     0.0044270826   0.35546937    -0.58787062   
    836000   0.97217721     0.0038165376   0.38843168    -0.57294356   
    837000   1.0025122      0.0067337075   0.42091221    -0.57046097   
    838000   1.0096537      0.0033313708   0.4423081     -0.55612721   
    839000   1.0310943      0.0034022235   0.44046842    -0.57916924   
    840000   1.032479       0.0066006468   0.44201254    -0.57899446   
    841000   0.98719931     0.0030548292   0.41279873    -0.56343171   
    842000   0.99820457     0.0031956018   0.44573414    -0.54137927   
    843000   1.0556655      0.0041712496   0.46388708    -0.58004884   
    844000   0.98883211     0.0043580677   0.41567158    -0.56217351   
    845000   0.93746301     0.0074611221   0.37598368    -0.55106308   
    846000   1.0309319      0.00452661     0.48052084    -0.53895621   
    847000   0.98879886     0.0038917186   0.37853707    -0.59927514   
    848000   1.0378724      0.0057537633   0.46235025    -0.56399024   
    849000   0.98614311     0.0022269237   0.41337962    -0.56180635   
    850000   1.0313461      0.0032511533   0.47063304    -0.54925367   
    851000   0.9758862      0.0052599776   0.4046613     -0.56038172   
    852000   0.93570017     0.0064351413   0.35313674    -0.57216676   
    853000   0.98890197     0.0032922982   0.41663873    -0.56127544   
    854000   0.99227999     0.0030351696   0.43117297    -0.55008169   
    855000   0.86244547     0.004385679    0.2746194     -0.57824334   
    856000   1.0306801      0.002288727    0.46285805    -0.55637003   
    857000   1.0122843      0.0041111636   0.48244261    -0.51859412   
    858000   0.99305655     0.003553627    0.4788184     -0.50320418   
    859000   1.0137132      0.0039804325   0.46252749    -0.53992224   
    860000   0.99608234     0.0029904739   0.47663372    -0.50838104   
    861000   0.99736383     0.0028683257   0.45143345    -0.53484856   
    862000   1.0505107      0.0044896095   0.52501688    -0.51382147   
    863000   1.0656145      0.0034875335   0.51287391    -0.54090048   
    864000   0.99386339     0.0035573702   0.42453445    -0.55828602   
    865000   1.0317148      0.0047218072   0.48357645    -0.53667485   
    866000   1.0143968      0.003947028    0.44219229    -0.56093347   
    867000   0.96579707     0.0061111072   0.43669263    -0.51837336   
    868000   0.98871947     0.0031913953   0.37812837    -0.59960533   
    869000   1.0166479      0.0053659407   0.41297083    -0.59238095   
    870000   1.0218917      0.004137384    0.41670514    -0.59383222   
    871000   1.0329753      0.0028361865   0.42393651    -0.59756128   
    872000   0.9506559      0.0034899431   0.30453516    -0.6355579    
    873000   1.040974       0.0034783804   0.40031745    -0.62909021   
    874000   0.98511284     0.0034419455   0.38268594    -0.5914812    
    875000   0.94189835     0.0031438253   0.3638061     -0.56762672   
    876000   0.96308322     0.0041050368   0.38558886    -0.56679343   
    877000   1.0132817      0.0027443378   0.43115621    -0.57086684   
    878000   0.98274649     0.0026241417   0.3899265     -0.58190058   
    879000   0.98376654     0.0032977157   0.35262932    -0.62020647   
    880000   0.96616435     0.0031255861   0.34247392    -0.61295527   
    881000   1.0131909      0.0039307651   0.36903435    -0.63289888   
    882000   0.9904126      0.0041335951   0.41775793    -0.56165008   
    883000   0.9917788      0.002848396    0.44670039    -0.53405864   
    884000   1.0461576      0.0037638372   0.46290989    -0.57162373   
    885000   1.0370524      0.0055829142   0.45480713    -0.57072246   
    886000   0.97038865     0.0030787739   0.3839794     -0.57562716   
    887000   1.0576124      0.0048635048   0.47922258    -0.56663853   
    888000   0.9916724      0.0036761585   0.37650308    -0.60415074   
    889000   1.076637       0.0027950204   0.50767257    -0.55700181   
    890000   0.92033454     0.0032938455   0.29899363    -0.61111498   
    891000   0.91299854     0.0024295695   0.31655644    -0.58629767   
    892000   1.0070808      0.0030125704   0.45804085    -0.53785019   
    893000   1.0090897      0.0039954702   0.41892331    -0.57895433   
    894000   0.99880797     0.0038229081   0.39086089    -0.59684921   
    895000   0.90022562     0.0031928565   0.29856975    -0.59165336   
    896000   1.0794976      0.0018149421   0.450687      -0.6168162    
    897000   0.99865894     0.0026644001   0.40651164    -0.58105109   
    898000   0.99349152     0.0063485553   0.40566643    -0.5767863    
    899000   0.8546941      0.0025607994   0.24369395    -0.60150354   
    900000   1.0016066      0.0042282306   0.37452599    -0.61595169   
    901000   0.97949358     0.0019127461   0.35941275    -0.60919757   
    902000   0.94670236     0.0035376795   0.33121893    -0.60496452   
    903000   1.0043178      0.0027555496   0.39702852    -0.59613015   
    904000   0.99326271     0.0031167524   0.40635202    -0.57587444   
    905000   0.92111286     0.0023858478   0.32875519    -0.58212308   
    906000   1.0324222      0.0040660807   0.46979047    -0.55116038   
    907000   0.98444955     0.0046778239   0.4273474     -0.54616382   
    908000   1.0795719      0.0042153955   0.50543674    -0.56213988   
    909000   0.96836321     0.0036065166   0.39650719    -0.56109643   
    910000   0.99897053     0.0041184285   0.37991606    -0.60795479   
    911000   1.093823       0.0032044517   0.45498009    -0.6266893    
    912000   1.1096346      0.0033913226   0.50659788    -0.59070747   
    913000   1.014119       0.0047566317   0.43062714    -0.57222383   
    914000   1.0643787      0.008527755    0.46833157    -0.58422065   
    915000   1.0379723      0.0044327061   0.43900124    -0.58743804   
    916000   1.0370705      0.003648228    0.43332272    -0.59222477   
    917000   1.0036747      0.0022236239   0.43063946    -0.56188331   
    918000   0.90132613     0.0015336402   0.3284791     -0.56283229   
    919000   0.95822513     0.0027225758   0.40306573    -0.54451245   
    920000   0.99200817     0.0024440206   0.43475417    -0.54623168   
    921000   1.0131602      0.0064136441   0.40605983    -0.595843     
    922000   0.99815209     0.0028108871   0.42863556    -0.55842595   
    923000   0.94216514     0.0043150124   0.40043352    -0.53126312   
    924000   0.96002197     0.0038713303   0.40662133    -0.54273372   
    925000   0.95658337     0.0021753638   0.42714414    -0.51881052   
    926000   0.93964466     0.0056427091   0.42123978    -0.50796439   
    927000   1.0066415      0.0043196639   0.46811726    -0.52733933   
    928000   1.0297954      0.0028216789   0.471494      -0.54685923   
    929000   1.0761079      0.0027317571   0.54362274    -0.52052835   
    930000   1.0044484      0.0047250355   0.41589231    -0.57739556   
    931000   0.96796182     0.0021112776   0.3871975     -0.57000919   
    932000   1.1389036      0.0033625465   0.52238607    -0.60386307   
    933000   1.0958919      0.003017616    0.50459985    -0.57911551   
    934000   0.98728792     0.0012548646   0.38337004    -0.59294802   
    935000   0.98401475     0.0050198061   0.36360468    -0.60947657   
    936000   1.0645109      0.0066129451   0.43798483    -0.61469814   
    937000   1.0249981      0.0027957093   0.44109178    -0.5725175    
    938000   1.0355121      0.0035330249   0.47448932    -0.54951708   
    939000   1.0218092      0.0030423272   0.45177213    -0.55868359   
    940000   0.97213725     0.0041428766   0.43795967    -0.52337605   
    941000   0.97400679     0.0028352952   0.41846509    -0.54471941   
    942000   1.0577255      0.0028061369   0.51526917    -0.53070386   
    943000   0.86953859     0.0021691917   0.32990045    -0.5299766    
    944000   0.99889314     0.0031491345   0.45428182    -0.53351251   
    945000   1.0162026      0.0030956475   0.47986088    -0.5250506    
    946000   1.0577846      0.0017575031   0.48879203    -0.55723944   
    947000   0.94975382     0.0042927095   0.41414504    -0.52505597   
    948000   1.0214497      0.0041074475   0.49705172    -0.51304851   
    949000   1.0341128      0.005352284    0.46459586    -0.55802681   
    950000   1.0469809      0.003557884    0.4874838     -0.54786402   
    951000   0.97731992     0.0014624064   0.4301003     -0.53636051   
    952000   1.0747209      0.0049343779   0.53355883    -0.52922069   
    953000   1.0074729      0.0057527396   0.46787149    -0.52840723   
    954000   1.0308468      0.0037648477   0.46330342    -0.55608952   
    955000   1.0030126      0.0027346939   0.42010201    -0.57176603   
    956000   0.97093199     0.0049082025   0.41389911    -0.54624475   
    957000   0.97417898     0.0028300846   0.45911969    -0.50423508   
    958000   0.93117459     0.0014099715   0.39693234    -0.52389587   
    959000   1.0281855      0.0054141104   0.49325699    -0.52350419   
    960000   0.98965111     0.0023726188   0.47312555    -0.50552943   
    961000   1.0563451      0.0045739005   0.48617992    -0.55842796   
    962000   1.0098475      0.0042329224   0.48491466    -0.51371227   
    963000   1.0096674      0.0044190979   0.46473075    -0.53371812   
    964000   1.0202614      0.0023456502   0.49455674    -0.51436841   
    965000   1.0342505      0.002540678    0.4881291     -0.53462974   
    966000   1.045501       0.0033162272   0.50300417    -0.53088012   
    967000   1.0528248      0.0038397389   0.48688877    -0.55423801   
    968000   0.96432385     0.0029517528   0.39716472    -0.55644442   
    969000   1.0430073      0.0051044139   0.47809471    -0.55332359   
    970000   1.1248683      0.0044439934   0.54958815    -0.5627816    
    971000   1.0344183      0.0037666659   0.48669459    -0.53623017   
    972000   0.93537376     0.0040814447   0.35423036    -0.57075036   
    973000   1.1051619      0.0043097385   0.57255874    -0.52032362   
    974000   1.0687404      0.0053126402   0.55691733    -0.4999482    
    975000   0.97375434     0.0033111992   0.44224545    -0.52068939   
    976000   1.0785786      0.0051431487   0.52437915    -0.54221522   
    977000   0.95693617     0.0042849983   0.43026776    -0.51603578   
    978000   0.99955781     0.0056066674   0.45045082    -0.53800079   
    979000   0.9542441      0.0037482401   0.40424397    -0.53939742   
    980000   0.98327198     0.0047636298   0.42684863    -0.54549811   
    981000   0.86615243     0.0043476219   0.28846668    -0.56806183   
    982000   1.0563274      0.0035832768   0.49163964    -0.55295075   
    983000   0.99220976     0.0070102173   0.46030523    -0.52087998   
    984000   1.0129         0.002772399    0.43262288    -0.56902268   
    985000   1.0291671      0.0031692794   0.48509134    -0.53264062   
    986000   1.07123        0.003217775    0.49376055    -0.5655669    
    987000   1.0144586      0.0047930075   0.40159197    -0.60159488   
    988000   0.98947137     0.0059682839   0.38920744    -0.58926981   
    989000   0.97693449     0.0048196619   0.37269854    -0.59338112   
    990000   1.0040823      0.0036010091   0.4084066     -0.58451921   
    991000   0.89744921     0.0058755304   0.30878974    -0.57868781   
    992000   0.95382251     0.0029922368   0.35261877    -0.59060571   
    993000   1.0453544      0.005499357    0.4512449     -0.5824944    
    994000   0.99622138     0.0044038395   0.40061802    -0.58453422   
    995000   1.0440168      0.0036122881   0.43371922    -0.59869736   
    996000   1.0195835      0.0034439924   0.40717115    -0.60108362   
    997000   1.013756       0.0022332944   0.43996273    -0.56252934   
    998000   1.0267806      0.0035121272   0.39695686    -0.6184151    
    999000   1.0040087      0.0039200067   0.40867433    -0.58417872   
   1000000   0.99155197     0.0035559673   0.34740163    -0.6331331    
Loop time of 18.8197 on 1 procs for 1000000 steps with 405 atoms

Performance: 45909314.270 tau/day, 53135.780 timesteps/s
99.0% CPU use with 1 MPI tasks x no OpenMP threads

MPI task timing breakdown:
Section |  min time  |  avg time  |  max time  |%varavg| %total
---------------------------------------------------------------
Pair    | 1.6082     | 1.6082     | 1.6082     |   0.0 |  8.55
Bond    | 0.042604   | 0.042604   | 0.042604   |   0.0 |  0.23
Neigh   | 3.8227     | 3.8227     | 3.8227     |   0.0 | 20.31
Comm    | 0.85246    | 0.85246    | 0.85246    |   0.0 |  4.53
Output  | 0.32412    | 0.32412    | 0.32412    |   0.0 |  1.72
Modify  | 10.562     | 10.562     | 10.562     |   0.0 | 56.12
Other   |            | 1.607      |            |       |  8.54

Nlocal:            405 ave         405 max         405 min
Histogram: 1 0 0 0 0 0 0 0 0 0
Nghost:             50 ave          50 max          50 min
Histogram: 1 0 0 0 0 0 0 0 0 0
Neighs:             94 ave          94 max          94 min
Histogram: 1 0 0 0 0 0 0 0 0 0

Total # of neighbors = 94
Ave neighs/atom = 0.23209877
Ave special neighs/atom = 0
Neighbor list builds = 212422
Dangerous builds = 0
Total wall time: 0:00:18
