fix fLANG all langevin 1.0 1.0 1.0 100
neigh_modify exclude molecule/intra all
fix rigidNVE linked_vesicle rigid/nve molecule
  1 rigid bodies with 5 atoms
fix NVE synapsin nve 1.0 1.0 1.0

    ##======================================##
    ## Output
    ##======================================##

thermo 1000
thermo_style custom step temp press etotal epair
thermo_modify flush yes
timestep 0.01

    ##======================================##
    ## Equilibration before output
    ##======================================##


    ##======================================##
    ## Run with output
    ##======================================##

fix enforce_2d all enforce2d
dump 2 all custom 1000 Results_eps_attr1_eps_rep1_eps_rep_weak1e-12_range2_attr_with_repFalse_n_synapsin600_n_vesicles1/Movie_2d_eps_attr1_eps_rep1_eps_rep_weak1e-12_range2_attr_with_repFalse_n_synapsin600_n_vesicles1.xyz id type mol x y z
run 1000000
Generated 0 of 3 mixed pair_coeff terms from geometric mixing rule
Neighbor list info ...
  update every 1 steps, delay 1 steps, check yes
  max neighbors/atom: 2000, page size: 100000
  master list distance cutoff = 11.52462
  ghost atom cutoff = 11.52462
  binsize = 5.7623102, bins = 55 55 1
  1 neighbor lists, perpetual/occasional/extra = 1 0 0
  (1) pair cosine/squared, perpetual
      attributes: half, newton on
      pair build: half/bin/newton
      stencil: half/bin/2d
      bin: standard
Per MPI rank memory allocation (min/avg/max) = 8.538 | 8.538 | 8.538 Mbytes
   Step          Temp          Press          TotEng         E_pair    
         0   0.99605013    -0.012465183    0.98864149     0            
      1000   0.97933204     0.0066724611   0.97040397    -0.0016437822 
      2000   1.0317397      0.0063271934   1.0246489      0.00058331269
      3000   1.0689063      0.0060233939   1.0602611     -0.00069462713
      4000   0.97284245     0.005373408    0.96445325    -0.0011531766 
      5000   0.99501179     0.0064104431   0.98595799    -0.0016528926 
      6000   1.0173339      0.0060692488   1.0098047      3.7699892e-05
      7000   0.94645278     0.0062163678   0.93941305     0            
      8000   1.0008945      0.0063876474   0.9945241      0.001074262  
      9000   0.95906065     0.0061670299   0.95104189    -0.00088525453
     10000   0.95689986     0.0054161583   0.94971883    -6.3586731e-05
     11000   1.0218092      0.0059120142   1.0121351     -0.0020737801 
     12000   1.0003959      0.006150929    0.99263178    -0.00032318946
     13000   0.99778403     0.0063620281   0.9895868     -0.00077570019
     14000   0.9637308      0.005493536    0.95656461     2.0608632e-06
     15000   1.0023689      0.006358039    0.99391864    -0.00099461728
     16000   0.94290863     0.0071771591   0.93755308     0.0016578169 
     17000   1.0644139      0.0070538177   1.0547276     -0.0017691631 
     18000   0.91859372     0.0046534168   0.90755615    -0.0042050617 
     19000   0.95197932     0.005104061    0.94245587    -0.0024426141 
     20000   1.0415082      0.0060461553   1.0306576     -0.0031038465 
     21000   0.92800195     0.0051515633   0.92155535     0.00045589174
     22000   0.95595113     0.0055290065   0.94854955    -0.00029120085
     23000   0.99026295     0.0059330015   0.98140489    -0.0014924723 
     24000   0.94566386     0.0056616517   0.93813518    -0.00049481385
     25000   1.0393094      0.0071762424   1.031579       0            
     26000   0.95090084     0.0060241447   0.94179534    -0.0020326841 
     27000   1.0276679      0.0067358086   1.0191999     -0.00082417088
     28000   0.99622902     0.0059820506   0.99107433     0.0022552702 
     29000   1.022947       0.0062727653   1.0139805     -0.0013577766 
     30000   1.0258733      0.0058596962   1.0182428      0            
     31000   1.0025184      0.0063038349   0.99362858    -0.0014330643 
     32000   1.0654454      0.0059081659   1.0592864      0.0017657937 
     33000   0.97792054     0.0061846604   0.97021131    -0.00043543759
     34000   0.99751157     0.0070604982   0.98782672    -0.0022653418 
     35000   1.0474556      0.0061310594   1.0366231     -0.0030414536 
     36000   0.9497343      0.005055387    0.94185439    -0.00081576915
     37000   1.0068869      0.0060919297   0.99939765     2.7094554e-13
     38000   1.0023938      0.0073275568   0.9930904     -0.0018475602 
     39000   0.9957094      0.0064363269   0.98651628    -0.0017870131 
     40000   1.0368983      0.0067672972   1.0275883     -0.0015975578 
     41000   1.0429956      0.0079560032   1.0320605     -0.0031773135 
     42000   0.91284542     0.0051968156   0.90223498    -0.0038206743 
     43000   0.96927169     0.0052595422   0.96040934    -0.0016528926 
     44000   1.034533       0.0068407448   1.0272692      0.00043107769
     45000   1.075771       0.0058410486   1.0672264     -0.00054300143
     46000   0.94804921     0.0046710958   0.9409976      0            
     47000   0.99477463     0.0058789853   0.98765231     0.0002768314 
     48000   0.98497576     0.0060795636   0.9776495      0            
     49000   1.028093       0.0068624729   1.0192798     -0.0011662068 
     50000   0.93838405     0.0054966002   0.93028869    -0.0011156464 
     51000   1.0253076      0.0061407042   1.0173976     -0.00028370519
     52000   0.9242982      0.0058527904   0.91679776    -0.00062550206
     53000   1.0116968      0.0064229202   1.0067195      0.0025476775 
     54000   1.0177193      0.006046191    1.009911      -0.00023851387
     55000   1.0173099      0.0055450851   1.0080947     -0.0016483891 
     56000   0.95085173     0.0063638438   0.94266546    -0.0011138173 
     57000   1.0125058      0.0059436215   1.0035674     -0.0014073935 
     58000   0.93563471     0.0059172759   0.92836412    -0.00031132842
     59000   1.0258725      0.0067784329   1.0182816      3.948973e-05 
     60000   0.97026703     0.0056062492   0.96305017     0            
     61000   0.98765561     0.005651508    0.98027707    -3.2336509e-05
     62000   0.97305873     0.0076792127   0.96572986    -9.1244503e-05
     63000   0.95613241     0.005255734    0.94880317    -0.00021750841
     64000   1.036686       0.0065110899   1.0289751      1.917135e-11 
     65000   1.0121155      0.0063206648   1.0045874      0            
     66000   0.96601824     0.0061210889   0.95753063    -0.00130235   
     67000   1.0485661      0.006521065    1.0381856     -0.00258125   
     68000   0.94000287     0.0052075204   0.93152458    -0.0014865342 
     69000   0.979802       0.0056837423   0.97243104    -8.3177506e-05
     70000   0.99280961     0.0068394612   0.98542507     0            
     71000   0.9810546      0.0057951406   0.97380165     4.4154936e-05
     72000   1.0408186      0.006938211    1.033077       0            
     73000   1.0449878      0.005684221    1.0372334      1.8263068e-05
     74000   0.99070135     0.0065224174   0.98333249     0            
     75000   0.9453019      0.0060998092   0.93830546     3.4736137e-05
     76000   1.0197893      0.005964282    1.0126025      0.00039838812
     77000   0.94700633     0.0053693083   0.93996248     0            
     78000   1.014512       0.0063002576   1.0069661      0            
     79000   0.97111944     0.0063015883   0.96387583    -2.0416722e-05
     80000   1.0318973      0.0065242717   1.0238859     -0.00033619719
     81000   0.95531519     0.005947085    0.94842698     0.00021743671
     82000   0.97370273     0.0053841041   0.96671069     0.00025037827
     83000   0.97036301     0.0068318867   0.9642906      0.001145164  
     84000   1.0463109      0.0056697865   1.0385285      0            
     85000   0.95181358     0.0056165083   0.94473397     0            
     86000   0.92717205     0.0062911312   0.92027573     0            
     87000   0.93992311     0.006138381    0.93311844     0.00018648788
     88000   0.99828601     0.006066181    0.99003857    -0.00082217986
     89000   1.0047069      0.0063878798   0.99723385     0            
     90000   0.98652005     0.0060903593   0.97815836    -0.0010239396 
     91000   1.039215       0.0070588483   1.0306267     -0.0008586002 
     92000   1.0302796      0.0062089204   1.0226164      0            
     93000   0.98052085     0.0061892816   0.97582783     0.0026001112 
     94000   1.0056644      0.006191916    0.99736454    -0.00081973681
     95000   1.017707       0.0066234326   1.0101373      0            
     96000   0.97490551     0.0048998695   0.96762979    -2.4364057e-05
     97000   1.0183777      0.0065978658   1.010803       0            
     98000   1.0143498      0.0066889542   1.0068051      0            
     99000   1.0058677      0.0051298799   0.99838607     0            
    100000   1.0182574      0.0072451432   1.0106836      0            
    101000   1.0118952      0.0078145968   1.0033582     -0.001010523  
    102000   1.057664       0.0068278454   1.0485054     -0.0012916485 
    103000   0.97266609     0.0056073788   0.96241284    -0.0030185423 
    104000   0.9798691      0.0059905608   0.97239307    -0.00018775137
    105000   1.0121268      0.0066046047   1.0044072     -0.0001914018 
    106000   1.0308369      0.0066868354   1.0227372     -0.00043230184
    107000   0.92288378     0.00569365     0.91356842    -0.0024509416 
    108000   0.94687214     0.0065158757   0.93819175    -0.001637541  
    109000   0.98557041     0.0066671901   0.97665658    -0.001583146  
    110000   1.0242154      0.0060071792   1.0155656     -0.0010316202 
    111000   0.98765183     0.0056647131   0.97895151    -0.0013541507 
    112000   0.96681639     0.0056203495   0.95948592    -0.00013927535
    113000   1.014712       0.0063520614   1.002765      -0.0043995494 
    114000   0.98708628     0.0069608295   0.97737076    -0.0023735629 
    115000   1.0231765      0.0057098061   1.0159298      0.00036369971
    116000   1.0211825      0.0057100362   1.0120905     -0.0014964385 
    117000   1.0298761      0.0074066019   1.0212089     -0.0010070029 
    118000   1.0028249      0.0063161366   0.99371321    -0.0016526784 
    119000   0.98970862     0.0062480744   0.98191663    -0.00043051783
    120000   1.0213319      0.0059035237   1.0144408      0.00070556896
    121000   1.010204       0.0057211912   1.0004236     -0.0022664876 
    122000   1.0609951      0.0056548122   1.0514635     -0.0016399201 
    123000   1.0359794      0.0061636221   1.0282737      1.5246754e-13
    124000   0.978979       0.0056590018   0.97187865     0.00018131736
    125000   0.97266768     0.0059425636   0.96485246    -0.00058050204
    126000   1.0430393      0.0063348378   1.0329231     -0.0023580157 
    127000   1.0073082      0.0065683741   0.99790265    -0.0019132044 
    128000   0.97949196     0.0060544562   0.97070078    -0.0015056973 
    129000   0.97390558     0.0056247969   0.96505863    -0.0016030252 
    130000   1.0031794      0.005721773    0.99356604    -0.0021517318 
    131000   1.0837443      0.0058079968   1.0758297      0.00014625038
    132000   0.98433094     0.0054445558   0.97658715    -0.00042232975
    133000   0.9898051      0.0053985045   0.98193649    -0.00050641936
    134000   1.0165221      0.0061313837   1.0070803     -0.0018809216 
    135000   1.0867885      0.006650437    1.0783357     -0.00036924082
    136000   0.98632476     0.0068366951   0.9774391     -0.0015493612 
    137000   1.0369215      0.0061286958   1.0276955     -0.001513404  
    138000   0.98316536     0.0052513523   0.97430626    -0.0015463035 
    139000   1.0055459      0.0058759995   0.99888952     0.0008229079 
    140000   1.0349419      0.0060006248   1.0253583     -0.0018856739 
    141000   0.98119324     0.0067400692   0.97225521    -0.0016399023 
    142000   1.0139223      0.0054483653   1.0041995     -0.0021811824 
    143000   1.0589279      0.0063700405   1.0493107     -0.0017408897 
    144000   1.0065182      0.0061515233   0.99484419    -0.0041875269 
    145000   1.0048063      0.004418269    0.99578493    -0.0015475499 
    146000   0.94240861     0.0053950092   0.93435028    -0.0010486795 
    147000   0.96732866     0.0057990702   0.95891975    -0.0012138969 
    148000   0.9314085      0.0059214709   0.92371595    -0.000764723  
    149000   1.0003309      0.0073776375   0.99289041     0            
    150000   0.94393034     0.004944084    0.93690937     0            
    151000   1.0196616      0.0073438491   1.0097254     -0.0023519063 
    152000   1.0697454      0.0066428677   1.0626235      0.00083489972
    153000   0.96513959     0.0057389092   0.95749214    -0.00046873114
    154000   1.0067344      0.00601511     0.99802541    -0.0012208793 
    155000   0.93066318     0.0051795113   0.92333782    -0.00040307158
    156000   1.0013449      0.0062418607   0.99229713    -0.0015997105 
    157000   1.032839       0.0064687356   1.0225657     -0.0025909591 
    158000   1.0466897      0.0072611086   1.0389044      4.2002904e-14
    159000   0.92695018     0.0060754136   0.91840262    -0.0016528926 
    160000   1.0230574      0.0067398372   1.0147492     -0.00069868998
    161000   0.99590346     0.0061615032   0.98825219    -0.00024371915
    162000   0.96590403     0.0053258362   0.95871962     0            
    163000   0.93855817     0.0064727884   0.93360688     0.0020297194 
    164000   1.0233412      0.0073817841   1.0157295      0            
    165000   0.97199581     0.0063321031   0.96369226    -0.0010738338 
    166000   0.98226144     0.0064819948   0.97376407    -0.001191293  
    167000   0.98736674     0.0058998605   0.98002269     0            
    168000   1.0924222      0.006493467    1.0841894     -0.0001073109 
    169000   0.96710713     0.006417234    0.95719114    -0.0027226352 
    170000   0.97954377     0.0054636572   0.97113312    -0.0011247845 
    171000   0.96989798     0.0059213975   0.96268386     0            
    172000   1.0439956      0.0071069637   1.0362303      0            
    173000   1.007624       0.0061000491   1.0010653      0.00093610475
    174000   1.01722        0.0063263684   1.0098249      0.00017097369
    175000   0.92106393     0.0058208743   0.91421305     0            
    176000   1.0089964      0.0050406323   1.00177        0.00027854533
    177000   1.0301771      0.0070824037   1.0225146      0            
    178000   0.96356664     0.0056660872   0.95639961     0            
    179000   1.0234366      0.0066955285   1.0158242      0            
    180000   0.98766521     0.0054143365   0.97977194    -0.00054699169
    181000   1.033578       0.0054573121   1.0258902      0            
    182000   1.0825919      0.006390365    1.0735456     -0.00099394478
    183000   1.0119742      0.0063665747   1.0069119      0.0024647988 
    184000   1.0230734      0.0062684202   1.0151827     -0.00028106277
    185000   1.0399705      0.0069684157   1.031533      -0.0007021594 
    186000   0.97480933     0.005970756    0.96710343    -0.00045525626
    187000   1.0070885      0.0053285845   0.99796821    -0.0016295443 
    188000   1.0540719      0.0071355789   1.0462317      1.9944461e-12
    189000   1.0170167      0.0059874503   1.0094777      2.5629661e-05
    190000   1.002106       0.0055879926   0.99461644    -3.5841356e-05
    191000   1.004684       0.0067640144   0.99721118     0            
    192000   1.0432325      0.0054834911   1.0344592     -0.0010137385 
    193000   1.0148737      0.0067910208   1.0040925     -0.0032326273 
    194000   0.99112382     0.0072089346   0.98302251    -0.00072931624
    195000   1.0039365      0.0058214985   0.99414821    -0.0023209893 
    196000   1.0237224      0.0062992372   1.0135987     -0.0025092046 
    197000   1.0495898      0.0049102255   1.0384486     -0.0033343298 
    198000   1.075979       0.006357253    1.0667947     -0.0011812122 
    199000   1.0375691      0.0070669566   1.0278991     -0.0019525637 
    200000   0.94273772     0.0065571541   0.93503538    -0.00069024127
    201000   1.0117032      0.0069473509   1.0011422     -0.0030359895 
    202000   0.99203965     0.0057885279   0.98205121    -0.0026096354 
    203000   0.99663452     0.0057724012   0.99220975     0.0029882065 
    204000   1.0093488      0.0060445131   1.0018413      6.8401004e-13
    205000   1.0497275      0.0064752666   1.0412267     -0.00069293806
    206000   0.90461304     0.0057753742   0.89788453     1.730606e-08 
    207000   0.99580261     0.0057808107   0.98838139    -1.4421968e-05
    208000   0.99078125     0.0063860209   0.9834118      0            
    209000   1.045554       0.0068449692   1.0377772      0            
    210000   0.99931868     0.0075403359   0.9907703     -0.0011154282 
    211000   0.9834752      0.0055211344   0.97330783    -0.0028522706 
    212000   1.0116692      0.0061146043   1.0041382     -6.260918e-06 
    213000   1.0104089      0.0063605684   1.0028935      0            
    214000   1.0257271      0.0056887498   1.0180979      1.1756868e-07
    215000   1.0131005      0.0068513686   1.005042      -0.00052312343
    216000   1.0151752      0.0068628217   1.0075224     -0.00010191783
    217000   0.98057476     0.0052543728   0.97223325    -0.001047978  
    218000   1.0437818      0.0061219988   1.0360181      0            
    219000   1.0783161      0.0057456572   1.0701573     -0.00013829605
    220000   0.90559073     0.0063418492   0.89739435    -0.0014605774 
    221000   1.0176561      0.006681055    1.0100868      0            
    222000   1.0051909      0.0065586747   0.99771428     0            
    223000   0.98206709     0.0064506037   0.97312223    -0.0016402309 
    224000   0.98402896     0.0065266745   0.97505685    -0.0016528926 
    225000   1.0167042      0.006440373    1.009204       6.2048105e-05
    226000   1.042878       0.0055714095   1.0351211      0            
    227000   0.92959162     0.0061141791   0.9226773      1.0250892e-15
    228000   0.99584894     0.0053527717   0.9884418      0            
    229000   0.97736473     0.0060253185   0.97009507     0            
    230000   1.0467035      0.0066154158   1.0388095     -0.0001086425 
    231000   0.99874064     0.0068901171   0.99132934     1.73443e-05  
    232000   0.996417       0.0071670821   0.98869351    -0.00031212272
    233000   1.0447701      0.0059546791   1.0369335     -6.5628576e-05
    234000   1.0252357      0.006579267    1.0161824     -0.0014275759 
    235000   1.0345396      0.0063867186   1.0250523     -0.0017924007 
    236000   1.0476008      0.0070775722   1.0398088      0            
    237000   0.98609958     0.0051478248   0.9765799     -0.002185053  
    238000   0.99383735     0.0066594208   0.98634186    -0.00010330953
    239000   1.0002425      0.0068422832   0.99198974    -0.00081294443
    240000   0.97937919     0.0066671022   0.97209455     5.4213721e-14
    241000   0.9957172      0.0061648072   0.98681537    -0.0014956728 
    242000   0.94752435     0.0057770115   0.94003956    -0.00043708159
    243000   1.0113846      0.0061655927   1.0038619      0            
    244000   0.97555236     0.0062772848   0.96829618     0            
    245000   0.94928563     0.0060761245   0.94113164    -0.001093184  
    246000   1.0321673      0.0067463412   1.02449        0            
    247000   0.99130567     0.007075648    0.98393232     0            
    248000   0.9698949      0.0054927773   0.96261259    -6.8219597e-05
    249000   0.95051687     0.0057554211   0.94250678    -0.00094012395
    250000   1.0465672      0.0064487128   1.0375114     -0.0012714491 
    251000   1.0037987      0.0059947018   0.99495265    -0.0013797906 
    252000   0.95417735     0.0067814306   0.94606431    -0.0010158464 
    253000   1.0076953      0.0068038991   0.99923926    -0.00096081661
    254000   1.0027929      0.0064785986   0.9941054     -0.0012286655 
    255000   1.0580032      0.0054729257   1.049731      -0.00040270189
    256000   1.0044423      0.0065295652   0.99677735    -0.00019390405
    257000   0.96132095     0.0055831706   0.95319982    -0.00097081234
    258000   1.0287981      0.0060638713   1.0210708     -7.5125897e-05
    259000   1.0430152      0.0062734988   1.034626      -0.00063126406
    260000   0.93446063     0.0054344298   0.92595862    -0.0015514744 
    261000   1.0230403      0.0055330395   1.0129442     -0.0024866996 
    262000   0.9498675      0.0063014264   0.94216282    -0.00063955412
    263000   1.0336888      0.0067125163   1.025875      -0.00012512777
    264000   0.93000223     0.0047838315   0.92159673    -0.001488126  
    265000   0.99529037     0.0060086409   0.98751846    -0.00036892978
    266000   0.99088726     0.0058752501   0.98247617    -0.0010408555 
    267000   0.99499111     0.0061771693   0.98717382    -0.00041653369
    268000   1.0231617      0.0062953009   1.0155445     -6.8955984e-06
    269000   1.0282314      0.0060971058   1.0194493     -0.0011340728 
    270000   1.0471313      0.0075088409   1.0378451     -0.0014976814 
    271000   1.0299795      0.0068375437   1.0206772     -0.0016413563 
    272000   1.0038845      0.0062027885   0.9940889     -0.0023286532 
    273000   1.011727       0.0059526894   1.0048046      0.00060285891
    274000   1.0208984      0.0063561483   1.013305       0            
    275000   0.93861696     0.0049609997   0.93000539    -0.0016301239 
    276000   1.0305019      0.0068918429   1.0222862     -0.00055075185
    277000   1.0492013      0.0067302676   1.0415404      0.00014312818
    278000   0.95416686     0.0052281478   0.94706975     0            
    279000   0.97582064     0.0060881352   0.96856247     0            
    280000   1.1101868      0.0065923225   1.1019292      0            
    281000   1.0508061      0.007139315    1.0429902      0            
    282000   1.0472615      0.0060640628   1.0387131     -0.00075883036
    283000   0.99790239     0.0063809589   0.99096533     0.00048534809
    284000   0.95767705     0.0062924049   0.95055385     1.4201755e-08
    285000   0.98330233     0.0061198336   0.97629092     0.00030240873
    286000   0.9300203      0.0059561523   0.9231028      0            
    287000   1.0069152      0.006403707    0.99834709    -0.0010786745 
    288000   0.92600798     0.0060796836   0.91859651    -0.00052381116
    289000   1.0231147      0.0061366105   1.0143641     -0.0011406918 
    290000   1.0359919      0.0070708594   1.0273883     -0.00089786491
    291000   1.0176647      0.0058246385   1.010101       5.6990439e-06
    292000   1.0846796      0.0064888076   1.0751269     -0.0014848321 
    293000   0.97737661     0.0058753247   0.96931012    -0.00079675364
    294000   1.0127021      0.0072748881   1.0046735     -0.00049603661
    295000   0.98559352     0.006396435    0.97728122    -0.00098143613
    296000   0.95927122     0.0055702168   0.94926292    -0.0028732268 
    297000   0.94763547     0.0062683863   0.9374399     -0.0031470373 
    298000   1.0598132      0.0060774568   1.0506508     -0.0012795082 
    299000   1.0675448      0.007405264    1.0577511     -0.0018533259 
    300000   0.9649815      0.0052475601   0.95454471    -0.0032592479 
    301000   1.0249316      0.0064888396   1.0136646     -0.0036434916 
    302000   1.0321173      0.0068206101   1.0216647     -0.0027756977 
    303000   0.93741385     0.0056966495   0.92938547    -0.0010558715 
    304000   0.96152347     0.0058647988   0.9543372     -3.4440041e-05
    305000   0.95201645     0.0059363031   0.94308164    -0.0018536964 
    306000   0.92286091     0.0056184303   0.91112456    -0.0048720969 
    307000   0.96230877     0.0057306716   0.95449057    -0.0006605293 
    308000   0.97817452     0.0058780113   0.96865694    -0.0022419008 
    309000   0.9721425      0.005919106    0.96354659    -0.0013650927 
    310000   0.97533997     0.0050975622   0.9674247     -0.00066067221
    311000   0.9694479      0.0063847789   0.96223713     0            
    312000   0.97979682     0.0072299747   0.97250908     0            
    313000   0.95224498     0.0052407405   0.94187109    -0.0032910701 
    314000   1.1230739      0.0073805569   1.1134611     -0.0012593122 
    315000   1.0692456      0.0068281687   1.0599924     -0.0013001412 
    316000   1.0352002      0.0071833815   1.0282933      0.00079301728
    317000   1.004321       0.0073140967   0.99535725    -0.0014936066 
    318000   0.99344748     0.0053499035   0.98576315    -0.00029504866
    319000   0.96095179     0.0061219335   0.95167079    -0.0021334247 
    320000   0.97527681     0.0056194714   0.96658714    -0.0014355418 
    321000   1.0611299      0.0059823966   1.0499494     -0.003287823  
    322000   0.98360202     0.0064412178   0.97649524     0.00020927173
    323000   0.99585955     0.0060432863   0.98821776    -0.0002345689 
    324000   1.0087209      0.0067822275   1.0001301     -0.0010879614 
    325000   0.96236415     0.0065232262   0.95554203     0.00033595837
    326000   1.0629957      0.0066869034   1.0534352     -0.0016539391 
    327000   0.96427387     0.0058842925   0.95616538    -0.00093620827
    328000   0.99807127     0.006894068    0.99057592    -7.1676798e-05
    329000   1.0430729      0.0058633287   1.0330151     -0.0022994549 
    330000   1.0222134      0.0061574085   1.0130277     -0.0015824367 
    331000   1.0142325      0.0060128566   1.0050358     -0.0016528926 
    332000   1.0021206      0.0061563821   0.99451718    -0.00014958651
    333000   1.0846738      0.0071254493   1.076606       0            
    334000   1.0438469      0.0073105504   1.0359351     -0.0001476555 
    335000   0.97723139     0.0061370456   0.96990296    -5.976241e-05 
    336000   0.93377214     0.0058283405   0.92682674     4.8798105e-09
    337000   0.94629519     0.005314182    0.93919066    -6.5969805e-05
    338000   1.0035813      0.0068208723   0.99320992    -0.0029067042 
    339000   1.0078956      0.0052699976   0.99775688    -0.0026419552 
    340000   1.0241871      0.0068223525   1.0159815     -0.00058772628
    341000   1.0554514      0.0069529098   1.0469359     -0.00066496378
    342000   0.97844432     0.0062923048   0.97116664     0            
    343000   0.97379521     0.0063455165   0.96650017    -5.1935512e-05
    344000   1.0130285      0.0062455769   1.0050129     -0.00048067821
    345000   1.0032545      0.0062871697   0.99570009    -9.2203943e-05
    346000   1.0989465      0.0065018191   1.0897905     -0.00098199783
    347000   0.95556195     0.0059009061   0.94796859    -0.00048587219
    348000   1.0025281      0.0070355793   0.99264246    -0.0024288102 
    349000   0.97948344     0.006778365    0.9715851     -0.0006129254 
    350000   1.0341857      0.0053400283   1.0251288     -0.0013645802 
    351000   1.0002141      0.0054316761   0.99195688    -0.00081765007
    352000   0.95865312     0.0051521399   0.94994305    -0.0015795953 
    353000   0.97701387     0.0075111456   0.96811856    -0.0016282624 
    354000   1.0756559      0.0060579174   1.0655524     -0.0021027291 
    355000   1.0191915      0.0062576255   1.0097845     -0.001826319  
    356000   1.0256695      0.0066226996   1.0161585     -0.0018820096 
    357000   0.97008738     0.006538472    0.96083999    -0.0020318615 
    358000   0.989054       0.0063177782   0.9816974      0            
    359000   0.98067334     0.005716494    0.97164485    -0.0017342288 
    360000   0.9957535      0.0069837641   0.98744937    -0.00089770406
    361000   0.9695109      0.0066368252   0.95972117    -0.0025784857 
    362000   0.96135565     0.0052406264   0.95420507     0            
    363000   0.95927056     0.0057613638   0.95199648    -0.00013900989
    364000   0.95388216     0.0056558004   0.94479004    -0.0019971265 
    365000   1.0570527      0.0061610258   1.0478045     -0.0013858226 
    366000   1.0040638      0.0045193348   0.99401959    -0.0025759897 
    367000   1.0119052      0.0059119332   1.0032894     -0.0010892185 
    368000   0.95429366     0.0056877824   0.9465956     -0.00060000867
    369000   1.0421085      0.0061354655   1.0337737     -0.00058358779
    370000   1.0365671      0.0065933916   1.0288145     -4.2528377e-05
    371000   1.0275176      0.0063879367   1.0198743     -6.1091831e-07
    372000   0.96801749     0.0062395396   0.96052285    -0.00029451129
    373000   0.98521532     0.0071928849   0.97788727     0            
    374000   0.91539983     0.0053877684   0.90787622    -0.00071484548
    375000   1.0112496      0.0058918054   1.0037279      0            
    376000   0.98284208     0.0054078606   0.97553168     0            
    377000   0.98405334     0.0059949449   0.97673394     0            
    378000   1.0322224      0.0063860623   1.0229526     -0.0015921201 
    379000   0.9937218      0.0060610012   0.98467759    -0.0016528926 
    380000   1.0684411      0.0057615211   1.0598527     -0.00064132312
    381000   0.98196983     0.007038436    0.97467672     1.079853e-05 
    382000   1.0309005      0.007305873    1.0232327      1.9232153e-08
    383000   0.97776686     0.005881847    0.97029426    -0.00019994947
    384000   0.99923242     0.0068570775   0.98992124    -0.0018788729 
    385000   1.0574555      0.0064878708   1.0483844     -0.0012056629 
    386000   0.99863478     0.0070814066   0.99120692     0            
    387000   0.96034023     0.0063613042   0.95319721     2.7717672e-12
    388000   1.0214857      0.0064363771   1.0148044      0.00091654586
    389000   1.0907914      0.0072825927   1.0809592     -0.0017188652 
    390000   0.93897027     0.0057794866   0.93094989    -0.0010363045 
    391000   0.98731799     0.0056838642   0.97997431     1.724562e-13 
    392000   0.98572564     0.0054725269   0.9767409     -0.0016528926 
    393000   1.063511       0.0063596204   1.0556006      0            
    394000   0.93954173     0.0059707965   0.9325534      0            
    395000   1.0056276      0.0069874057   0.99846661     0.00031885217
    396000   1.0661134      0.0065326617   1.0591359      0.00095230187
    397000   0.96959006     0.005917694    0.96334025     0.00096201634
    398000   1.0041625      0.0053818878   0.99669351     0            
    399000   1.005876       0.0067793545   0.99839424     0            
    400000   1.0118882      0.0059718162   1.0043618      0            
    401000   1.0789036      0.0070705162   1.0708841      5.4041259e-06
    402000   1.0265876      0.005619662    1.0189518      0            
    403000   0.99309601     0.0059660025   0.98570935     0            
    404000   0.91412095     0.005487499    0.9073217      0            
    405000   0.98781498     0.0056307426   0.9804676      0            
    406000   0.93339537     0.005029248    0.92756451     0.0011117538 
    407000   0.98713903     0.0062800111   0.97979362    -3.0614663e-06
    408000   0.96124252     0.0055478632   0.95274901    -0.0013437698 
    409000   1.0886488      0.0070542152   1.0775593     -0.0029920837 
    410000   0.996694       0.0061450396   0.9870193     -0.0022612661 
    411000   1.0304702      0.0055031965   1.0226173     -0.00018826566
    412000   1.0212789      0.0062663552   1.0123771     -0.0013055338 
    413000   0.9481172      0.0057544645   0.94105979    -5.3014606e-06
    414000   1.0356699      0.0062471482   1.0272992     -0.00066743727
    415000   0.97908704     0.0069901979   0.97015741    -0.0016471643 
    416000   0.95089474     0.0073512325   0.94314911    -0.00067285843
    417000   1.0229085      0.0061386894   1.0153001      1.3096876e-08
    418000   1.008597       0.0068091081   1.001095       0            
    419000   0.99395542     0.0057112695   0.98656236     0            
    420000   1.0165876      0.0064143115   1.0090262      0            
    421000   1.0169912      0.0067396567   1.0089577     -0.00046910437
    422000   1.0755541      0.0059750372   1.0675541      0            
    423000   1.0583699      0.006126048    1.0504951     -2.6760837e-06
    424000   1.0311031      0.0056316843   1.0233225     -0.00011120524
    425000   0.99516695     0.0057924988   0.98567004    -0.0020948385 
    426000   0.96973782     0.0051813379   0.96008021    -0.0024446843 
    427000   1.0184947      0.0064497199   1.0095493     -0.0013697969 
    428000   0.98957329     0.0056652857   0.98099017    -0.0012226591 
    429000   0.98508784     0.0060779232   0.97775625    -4.4864293e-06
    430000   0.97203487     0.0064276378   0.96480485     0            
    431000   0.94749034     0.0063364108   0.93961646    -0.00082642692
    432000   1.0522003      0.0065768685   1.044374       0            
    433000   1.0580379      0.0060198336   1.0501698      1.5202175e-06
    434000   1.0445124      0.0056371636   1.0353695     -0.001373808  
    435000   0.99171833     0.0064137365   0.98434191     0            
    436000   1.0071917      0.0064719256   0.99970019     3.6230458e-15
    437000   0.94277319     0.0066156557   0.93576083     1.3641224e-10
    438000   0.95753178     0.0061155995   0.94868608    -0.001723564  
    439000   1.016613       0.0059353397   1.008168      -0.00088340459
    440000   0.951735       0.00523633     0.94453261    -0.00012337475
    441000   0.96956426     0.0052169277   0.96235263     0            
    442000   1.0678266      0.0058837027   1.0598841      0            
    443000   1.0202084      0.0065218983   1.0126201      0            
    444000   0.97932078     0.0060561071   0.97274446     0.00070788301
    445000   1.0892052      0.0073416701   1.0811037      0            
    446000   0.94600159     0.0053226271   0.93849047    -0.00047474276
    447000   0.95613451     0.0062974543   0.94908932     6.6551032e-05
    448000   1.0284138      0.006428426    1.0195528     -0.0012116195 
    449000   1.0587863      0.0059733244   1.0509111      3.3035147e-16
    450000   0.96513859     0.0067223352   0.95635664    -0.0016032356 
    451000   0.98958747     0.0057648424   0.98222691     1.1706595e-08
    452000   0.96034303     0.0057811016   0.95186247    -0.0013375141 
    453000   0.98776498     0.0060146671   0.97908287    -0.0013351007 
    454000   0.99234762     0.0054449679   0.98474697    -0.00021955151
    455000   0.98429766     0.0073181752   0.97697644     4.5167641e-09
    456000   0.97928536     0.006451572    0.97072884    -0.0012725862 
    457000   1.0166711      0.0060836345   1.0091091      0            
    458000   0.94527212     0.0059809469   0.93823978    -1.395868e-06 
    459000   0.9775051      0.0059715171   0.96868649    -0.001547915  
    460000   1.0424363      0.0059124368   1.0329032     -0.0017794724 
    461000   1.1279042      0.006127375    1.1172692     -0.0022456434 
    462000   1.1005543      0.0070931733   1.0918306     -0.00053774241
    463000   1.0249558      0.0059238755   1.0172675     -6.4684045e-05
    464000   1.0306146      0.0069909077   1.0225411     -0.00040770214
    465000   1.0493185      0.0065929598   1.0413877     -0.00012594576
    466000   0.94200392     0.0067763966   0.93296749    -0.00202979   
    467000   0.93211646     0.0059099837   0.92498129    -0.00020207563
    468000   1.0258363      0.005860601    1.0174248     -0.00078139966
    469000   0.99338908     0.0065508947   0.98374446    -0.0022557671 
    470000   0.98474996     0.0066474048   0.97485107    -0.0025742985 
    471000   1.0092295      0.0054092946   0.99921321    -0.0025096438 
    472000   1.0217132      0.0062883714   1.0141137      0            
    473000   0.99573673     0.0061091561   0.98856713     0.00023670942
    474000   1.0514722      0.0065503692   1.0442916      0.00064027689
    475000   1.0410228      0.0055017248   1.0334393      0.0001595917 
    476000   1.030054       0.0063907602   1.022649       0.00025654957
    477000   1.0122321      0.0054983856   1.0032378     -0.0014652814 
    478000   1.0206088      0.0067948264   1.0114195     -0.0015979684 
    479000   0.91975669     0.0061463082   0.91318825     0.00027272739
    480000   1.0098714      0.0059844131   1.0015056     -0.0008544047 
    481000   0.96704831     0.006497331    0.95998038     0.00012499773
    482000   1.0121053      0.0058467467   1.0047494      0.00017215288
    483000   1.0035326      0.0058535695   0.99606835     0            
    484000   0.91662489     0.0050554729   0.90980701     0            
    485000   1.0458616      0.0061469611   1.0380825      1.7094659e-11
    486000   0.95429163     0.0060099051   0.94680187    -0.00039171859
    487000   0.89246892     0.0068739291   0.88457006    -0.0012606664 
    488000   0.97561846     0.0061528789   0.96836018    -1.6193867e-06
    489000   0.99214519     0.0056380234   0.98392862    -0.00083697842
    490000   0.94465828     0.0063593499   0.93960098     0.0019690856 
    491000   1.0153327      0.0060168396   1.0062638     -0.0015167737 
    492000   0.96499815     0.0060903087   0.95671881    -0.001101663  
    493000   1.0314756      0.0065027805   1.0237815     -2.1943288e-05
    494000   0.97513342     0.0068535973   0.96809831     0.00021795135
    495000   1.0090613      0.0061689571   1.0005839     -0.00097203257
    496000   1.0337447      0.0072458461   1.0248136     -0.001242036  
    497000   0.9569046      0.0065030203   0.9498085      2.1378941e-05
    498000   1.0380731      0.0063847013   1.0307825      0.00043062002
    499000   0.9699372      0.0059676552   0.96409589     0.0013730959 
    500000   1.0246348      0.0067193222   1.0139587     -0.0030548751 
    501000   1.0651032      0.0067455158   1.0550965     -0.0020844374 
    502000   1.0323002      0.0068830613   1.0246438      2.1925167e-05
    503000   0.97858571     0.0062273878   0.97104919    -0.00025778361
    504000   0.94032096     0.0058777241   0.93237628    -0.00095055188
    505000   1.00461        0.0060578839   0.99877381     0.0016361138 
    506000   0.94721869     0.0061821873   0.93962746    -0.00054580359
    507000   1.0270893      0.0059677725   1.0190656     -0.00038420607
    508000   0.95618628     0.0051337873   0.94757767    -0.0014964832 
    509000   0.97811323     0.005740121    0.96799922    -0.0028387888 
    510000   0.99507138     0.0065549438   0.98630484    -0.0013651753 
    511000   0.98339397     0.0057647619   0.97652378     0.00044431193
    512000   0.98710445     0.0063595399   0.97842486    -0.001337494  
    513000   0.97425817     0.0052330629   0.96571699    -0.0012946263 
    514000   0.9990156      0.0064834886   0.98982941    -0.0017554951 
    515000   1.1208031      0.0075393577   1.1101412     -0.0023253904 
    516000   1.0124909      0.00601851     1.0036003     -0.0013597019 
    517000   1.0285768      0.0055582612   1.020094      -0.00083219122
    518000   0.95320307     0.0060641467   0.94611313     7.5168625e-12
    519000   1.0406984      0.0066896589   1.0312902     -0.0016674487 
    520000   0.99404283     0.0064292101   0.98664913     6.3941317e-16
    521000   0.96353682     0.0055403401   0.95637002     0            
    522000   1.0437129      0.007228157    1.0346433     -0.001306455  
    523000   0.99347905     0.0056655218   0.98527976    -0.00080977919
    524000   0.97868985     0.0067914294   0.9694688     -0.0019415404 
    525000   0.96917087     0.0061357494   0.95902034    -0.0029418177 
    526000   0.99547989     0.0060753413   0.98588139    -0.0021940979 
    527000   0.98519936     0.0058551153   0.97653009    -0.0013413447 
    528000   0.96974252     0.0054373622   0.96098116    -0.0015483949 
    529000   0.97676329     0.0051008227   0.9682696     -0.0012285037 
    530000   1.0134026      0.0063617457   1.0058603     -4.5706232e-06
    531000   1.0643302      0.0065925789   1.0563967     -1.6943059e-05
    532000   1.0100457      0.005529302    1.0009889     -0.0015440555 
    533000   0.95201823     0.0057503409   0.9449371      1.2989687e-15
    534000   0.94101851     0.0067944447   0.93489999     0.00088078928
    535000   0.96472677     0.0058367358   0.9570705     -0.00048061321
    536000   0.93406039     0.0056258889   0.92411016    -0.0030026705 
    537000   1.01802        0.0057434061   1.0099217     -0.00052623476
    538000   1.0514495      0.0079455768   1.0417904     -0.001838387  
    539000   1.0010964      0.0062816006   0.99208197    -0.0015682692 
    540000   0.96880015     0.0052922425   0.96159411    -8.7792326e-08
    541000   0.99147598     0.0057653981   0.98144869    -0.0026526764 
    542000   0.92218049     0.0058660606   0.91218649    -0.0031348005 
    543000   1.04177        0.0070882671   1.0338582     -0.00016315836
    544000   1.0049496      0.0065538324   0.99606217    -0.0014125491 
    545000   1.0195036      0.0052026347   1.0089723     -0.0029482451 
    546000   0.9464485      0.0058730993   0.94045158     0.0010427766 
    547000   1.1167463      0.0064321907   1.108271      -0.00016890828
    548000   1.0745964      0.0066227073   1.0657475     -0.00085595194
    549000   0.9262303      0.0053426404   0.91666828    -0.0026726993 
    550000   1.031018       0.0072135436   1.0218811     -0.0014681756 
    551000   1.0214332      0.0065194058   1.0146665      0.00083072435
    552000   1.0010827      0.0060120802   0.99363664     0            
    553000   0.94905558     0.0059770538   0.94199649     0            
    554000   0.99377464     0.0060047283   0.98638293     0            
    555000   1.0575196      0.0070151715   1.0477919     -0.0018618876 
    556000   1.0001824      0.005390688    0.99146239    -0.0012806673 
    557000   1.0231519      0.0067333426   1.0156024      6.0705892e-05
    558000   0.97392766     0.0055607462   0.96668317    -3.99102e-07  
    559000   0.9771687      0.0061018936   0.96913374    -0.00076676315
    560000   1.0163177      0.0054582133   1.0087748      1.6426152e-05
    561000   0.94748614     0.0052590475   0.93932993    -0.0011087945 
    562000   0.96774841     0.0056454282   0.95942703    -0.0011232466 
    563000   1.0254983      0.0059775961   1.0152918     -0.002578814  
    564000   0.97780643     0.0055474801   0.97053349     0            
    565000   1.0473521      0.0067056148   1.0392705     -0.00029136928
    566000   0.99316748     0.0053980141   0.98416854    -0.001611746  
    567000   1.0691417      0.007371753    1.0604071     -0.00078227468
    568000   1.0397746      0.0068571899   1.032303       0.00026222587
    569000   0.97453239     0.0065526094   0.9672838      0            
    570000   0.93978893     0.0056212917   0.93352837     0.00072960024
    571000   0.94719951     0.006889225    0.94015423     0            
    572000   1.011175       0.0064853687   1.0036539      0            
    573000   1.0109001      0.0067662651   1.003381       0            
    574000   1.0417292      0.0066899105   1.0339808      0            
    575000   0.97190509     0.0064249336   0.96457953    -9.6516131e-05
    576000   1.0291396      0.0061391455   1.0200085     -0.0014763102 
    577000   0.94502397     0.0055330871   0.93700714    -0.000987722  
    578000   1.0215188      0.0069321537   1.0158856      0.0019648135 
    579000   1.0104207      0.0053884712   1.0024484     -0.00045681175
    580000   1.0205736      0.0063727539   1.0125671     -0.00041540856
    581000   0.96062109     0.0064040356   0.95176984    -0.0017061349 
    582000   1.0200355      0.0068711648   1.0114056     -0.0010429038 
    583000   0.98041638     0.0061428633   0.97155969    -0.0015643375 
    584000   0.93730017     0.0067747524   0.92649172    -0.0038367962 
    585000   1.0586892      0.0064147442   1.0493748     -0.0014398602 
    586000   1.0146024      0.0069824652   1.0070558      0            
    587000   0.95602444     0.0053439587   0.94764001    -0.0012735056 
    588000   0.93339224     0.0056603217   0.92404315    -0.0024064979 
    589000   0.96991927     0.0056571156   0.96245645    -0.00024854226
    590000   1.059077       0.0067930265   1.0498943     -0.0013053436 
    591000   1.0281607      0.0070707126   1.0200906     -0.00042267413
    592000   0.99607737     0.0055553451   0.98796407    -0.00070446517
    593000   0.9741692      0.0054981817   0.96819231     0.0012689913 
    594000   0.99679288     0.006594403    0.98777006    -0.0016086587 
    595000   1.0145215      0.0057575512   1.0062916     -0.00068396345
    596000   1.0716776      0.0061652356   1.0636918     -1.4648642e-05
    597000   0.98638766     0.0063620137   0.9822025      0.0031516029 
    598000   0.96890271     0.0060240148   0.96209136     0.00039535964
    599000   0.98925713     0.0064747406   0.9802606     -0.0016384213 
    600000   1.0058473      0.0054921553   0.99689279    -0.0014729901 
    601000   1.0027707      0.0070070404   0.99554589     0.00023381801
    602000   1.0048455      0.0058712663   0.99737145     4.2393289e-16
    603000   1.009673       0.0056275149   1.0008917     -0.0012713749 
    604000   0.95394188     0.0053292198   0.94521733    -0.0016291124 
    605000   0.986643       0.0063796825   0.97930433     0            
    606000   1.0412321      0.0065682218   1.0334874      0            
    607000   0.96569771     0.006549505    0.95848301    -3.1826215e-05
    608000   1.0205831      0.0071468161   1.012992       0            
    609000   0.97525945     0.0072219332   0.96587469    -0.002130756  
    610000   0.97684421     0.005770092    0.9695782     -2.219032e-07 
    611000   1.0009005      0.0059718223   0.9929203     -0.00053543773
    612000   0.97912062     0.0062092582   0.97125499    -0.00058292141
    613000   1.0286755      0.0069016462   1.0186388     -0.0023853806 
    614000   1.0292014      0.0068082919   1.0215089     -3.7318006e-05
    615000   1.0190938      0.0064378888   1.0104438     -0.0010699561 
    616000   0.96750392     0.0059878367   0.95841996    -0.0018876412 
    617000   0.98781635     0.0057289267   0.97996896    -0.00050000016
    618000   0.92477016     0.0058032319   0.91658985    -0.0013018546 
    619000   0.96674934     0.0060538246   0.95945866    -9.9984552e-05
    620000   0.99399692     0.0055853556   0.98495067    -0.0016528926 
    621000   1.0209774      0.0058168683   1.0120298     -0.0013535382 
    622000   0.98304637     0.0052917983   0.97492298    -0.00081146852
    623000   1.0527628      0.0063829448   1.0466824      0.0017501154 
    624000   0.96238734     0.0062319432   0.95579264     0.00056355312
    625000   0.90849243     0.0052404747   0.90173504     0            
    626000   1.008952       0.006136512    1.0013177     -0.00012966197
    627000   1.0853123      0.0055908521   1.077201      -3.8777991e-05
    628000   0.97256958     0.0065496918   0.96418565    -0.0011499354 
    629000   0.963332       0.0052215985   0.95616672     0            
    630000   0.98691863     0.0050462919   0.97878762    -0.00079029313
    631000   0.97112015     0.0060533899   0.96382196    -7.4978554e-05
    632000   0.96452773     0.0065504608   0.95604514    -0.0013084122 
    633000   0.99839238     0.0065063498   0.98976074    -0.0012055781 
    634000   1.0589993      0.0060336595   1.0486582     -0.0024642339 
    635000   1.0194635      0.0061198559   1.0074926     -0.0043880725 
    636000   0.95937422     0.0049850309   0.95201978    -0.00021860488
    637000   0.95322627     0.0061209091   0.94620995     7.3790992e-05
    638000   1.0046596      0.0056018385   0.99718694     0            
    639000   1.0170473      0.0056310558   1.0094825      0            
    640000   0.94850976     0.0057830517   0.94145473     2.1739171e-12
    641000   1.000418       0.0066819752   0.99174784    -0.0012290214 
    642000   0.97364262     0.0061252683   0.96640066     0            
    643000   0.97407928     0.0055034031   0.96683406     0            
    644000   1.0146315      0.0057408388   1.0062217     -0.00086297844
    645000   0.9822407      0.0063234875   0.97609985     0.001165071  
    646000   1.0257328      0.005434077    1.0151507     -0.0029526292 
    647000   0.97721308     0.006509877    0.9691617     -0.00078285281
    648000   0.98674133     0.0057743706   0.97781041    -0.0015915205 
    649000   1.0148298      0.0058591274   1.00615       -0.001131471  
    650000   0.97800484     0.0060692898   0.97065011    -8.0321364e-05
    651000   1.0014961      0.0066674285   0.99311797    -0.00092899472
    652000   1.0338871      0.0062347222   1.0236865     -0.0025105447 
    653000   0.9998652      0.0051856151   0.99003985    -0.0023883338 
    654000   1.0022224      0.0072223234   0.9920072     -0.0027606714 
    655000   0.92210607     0.0050698423   0.91093467    -0.0043127564 
    656000   0.94455983     0.0059439783   0.9375392      5.0220613e-06
    657000   0.97744478     0.0063406611   0.96911975    -0.0010547879 
    658000   1.0287749      0.0065391238   1.0185355     -0.0025873994 
    659000   1.0172074      0.0055535046   1.0071403     -0.0025010692 
    660000   1.003801       0.005848554    0.99436076    -0.0019739419 
    661000   1.0156052      0.0070542213   1.0093671      0.0013159808 
    662000   0.93479861     0.0055715905   0.92739302    -0.00045253984
    663000   1.0279133      0.0070257666   1.0202677      3.0965095e-08
    664000   1.0089565      0.0068001832   0.99979896    -0.0016528926 
    665000   1.0309766      0.0056578654   1.0233082      7.0645325e-14
    666000   0.9490791      0.0044310523   0.94201983     0            
    667000   1.0604147      0.0069510693   1.0525273      0            
    668000   0.94121947     0.0056032272   0.93272982    -0.0014888458 
    669000   1.0422493      0.0069703982   1.0340304     -0.00046659241
    670000   1.0063265      0.0064540856   0.99820353    -0.000637944  
    671000   0.98418591     0.0066909401   0.97527327    -0.0015922522 
    672000   1.0497988      0.0065849257   1.0419903      2.9303868e-10
    673000   1.0462776      0.0062207945   1.038321      -0.00017435206
    674000   0.9831439      0.0067336478   0.97462991    -0.0012013525 
    675000   1.0211224      0.0068872383   1.0129428     -0.00058451496
    676000   0.93387788     0.0052737255   0.92596381    -0.00096786342
    677000   1.0006285      0.0062325579   0.99179831    -0.0013875002 
    678000   1.0290321      0.0066690262   1.0213781      5.4210514e-11
    679000   1.0002213      0.0062394209   0.99202241    -0.00075920698
    680000   1.0086028      0.0059690822   1.0016388      0.00053796905
    681000   0.96571013     0.0057304098   0.95722681    -0.0013003537 
    682000   0.90166738     0.0052605974   0.89461885    -0.00034190544
    683000   0.99090838     0.0051461187   0.98211005    -0.001427929  
    684000   1.0397773      0.0066594458   1.0314213     -0.00062209439
    685000   0.97667127     0.0064067285   0.9681065     -0.0013002687 
    686000   0.93097736     0.005180316    0.92246122    -0.0015915163 
    687000   0.96386537     0.0056492652   0.95621315    -0.00048297595
    688000   1.0227954      0.0067475622   1.0135657     -0.0016221326 
    689000   1.0039733      0.0055400491   0.99518833    -0.0013174158 
    690000   1.012658       0.0057373781   1.0021901     -0.0029357381 
    691000   0.97722627     0.0056968452   0.96832144    -0.001636204  
    692000   1.0108548      0.0058371086   1.0033258     -1.0293483e-05
    693000   1.0200852      0.0062740808   1.0110417     -0.0014560589 
    694000   0.98285874     0.0062860235   0.97554822     0            
    695000   0.92457167     0.006272161    0.91769469     0            
    696000   1.0560683      0.0059462024   1.0482132      0            
    697000   0.93854065     0.0057295838   0.92935646    -0.0022033147 
    698000   0.94245913     0.0050548334   0.93553832     8.9220477e-05
    699000   0.99877516     0.0066110299   0.9913119     -3.4354457e-05
    700000   0.98270685     0.0060985372   0.97468156    -0.00071590213
    701000   1.0344655      0.0065904967   1.0267712      1.3095736e-14
    702000   1.0702435      0.0069392665   1.0622831      0            
    703000   1.070476       0.0067594578   1.0617381     -0.00077566361
    704000   1.0247314      0.0070342428   1.0170898     -1.9641939e-05
    705000   1.0267607      0.0060209507   1.0191236      0            
    706000   1.0079933      0.0063479772   1.0004958      0            
    707000   1.0850041      0.0064996656   1.0777391      0.00080529964
    708000   0.97643598     0.0057236748   0.96917324     0            
    709000   0.99387901     0.0070700881   0.98648652     0            
    710000   1.0289458      0.0068279112   1.0212925      0            
    711000   1.0875388      0.0065613728   1.0791817     -0.00026802143
    712000   1.0013029      0.0045543865   0.99252734    -0.0013279004 
    713000   1.0926786      0.0060081199   1.082854      -0.0016972384 
    714000   1.0264034      0.0062398296   1.0162544     -0.0025146661 
    715000   0.97709227     0.0066292705   0.96982464     1.230186e-13 
    716000   1.0394143      0.0065321303   1.0326886      0.0010054337 
    717000   1.013443       0.007069237    1.0058719     -3.3126037e-05
    718000   1.0487455      0.0060686018   1.0397073     -0.0012375883 
    719000   0.98814414     0.005407334    0.98079316    -1.1442775e-06
    720000   1.0197096      0.0063989946   1.0135845      0.0014594969 
    721000   0.9338027      0.0053091033   0.9264855     -0.00037156366
    722000   1.0545523      0.0062891106   1.0451811     -0.0015274352 
    723000   0.93777938     0.0060063979   0.93307331     0.0022691492 
    724000   0.99271879     0.0060481352   0.98381259    -0.0015223371 
    725000   0.97808946     0.0074001344   0.97079422    -2.019673e-05 
    726000   1.0229283      0.0060436433   1.0136668     -0.0016528926 
    727000   1.0209541      0.0062623678   1.0117073     -0.0016528926 
    728000   0.95313544     0.0055281475   0.946046       0            
    729000   1.057454       0.0064171318   1.0479357     -0.0016528926 
    730000   1.0011547      0.0053026398   0.99211175    -0.0015963038 
    731000   1.0242215      0.0065411019   1.0156298     -0.00097348975
    732000   1.0127881      0.0054448863   1.0044694     -0.00078557688
    733000   0.98770843     0.0055844481   0.97966705    -0.00069478666
    734000   0.99851589     0.0065907292   0.99108891     0            
    735000   1.0037539      0.0064690571   0.99628792     0            
    736000   0.94471983     0.0061054984   0.93769571     2.7211863e-06
    737000   0.98648884     0.0061782471   0.97922409     7.2768579e-05
    738000   1.0232214      0.0066334257   1.0156107      0            
    739000   1.0078747      0.0050100354   0.99965827    -0.00071986114
    740000   0.95197543     0.0056858065   0.94489462     4.4939398e-13
    741000   0.99795129     0.0055095587   0.99052852     0            
    742000   0.95153381     0.0065406793   0.94437598    -8.0315454e-05
    743000   1.0188078      0.006468622    1.0102371     -0.00099286224
    744000   0.97470336     0.0062468427   0.96585598    -0.0015975196 
    745000   1.0095299      0.0062241275   0.99978617    -0.0022347903 
    746000   1.0005279      0.0061456419   0.98711543    -0.0059705523 
    747000   0.95730053     0.00664214     0.95035028     0.00017017088
    748000   0.94923523     0.006114957    0.94217482     2.0535331e-08
    749000   1.0558626      0.0068439047   1.0475336     -0.00047546399
    750000   0.99604822     0.0060514839   0.98763561    -0.001003992  
    751000   1.0294107      0.0062392425   1.0206253     -0.0011286668 
    752000   1.0549323      0.0057259257   1.047094       8.2671445e-06
    753000   1.0624417      0.0062362411   1.0545393      0            
    754000   1.0364371      0.0055850402   1.028728       0            
    755000   0.97628578     0.0066678835   0.96902415     1.158968e-10 
    756000   0.94569552     0.0061489864   0.93860466    -5.6761358e-05
    757000   1.0171095      0.0065856212   1.0100397      0.00049546973
    758000   0.94445534     0.0057923679   0.93743046     0            
    759000   0.9504764      0.0063359708   0.94175385    -0.0016528926 
    760000   0.99372195     0.0063099618   0.98474068    -0.0015899504 
    761000   1.0615244      0.0064655681   1.0536288      0            
    762000   1.0182957      0.0063426637   1.0122469      0.0015252959 
    763000   1.0794881      0.0067988021   1.0711463     -0.00031254802
    764000   1.0333744      0.006499312    1.024261      -0.0014271567 
    765000   1.029306       0.0057297003   1.0187442     -0.0029057967 
    766000   0.93650189     0.0052622629   0.9276912     -0.0018449724 
    767000   1.0183348      0.006363955    1.0107029     -5.7512885e-05
    768000   1.0550564      0.0054772411   1.0472093      4.0288285e-07
    769000   0.9872277      0.006564701    0.98098731     0.0011026313 
    770000   0.99796669     0.0070187004   0.9905438      0            
    771000   0.94056597     0.0058870859   0.93357003     0            
    772000   1.0255528      0.0062923282   1.0179247      2.6835656e-13
    773000   0.9789295      0.0068895221   0.97058322    -0.0010649922 
    774000   0.86779535     0.0047743752   0.85912098    -0.0022196909 
    775000   0.98759842     0.0071773197   0.98025265     0            
    776000   1.0269724      0.0066600035   1.0184435     -0.00089029838
    777000   0.97748709     0.006033078    0.97037834     0.0001618058 
    778000   0.96430762     0.0056634251   0.95681904    -0.00031604163
    779000   0.98976443     0.0063273601   0.98240262     6.7036906e-08
    780000   1.0853835      0.0068064901   1.077973       0.00066259106
    781000   1.046253       0.006188517    1.038471       1.2202095e-08
    782000   1.0091724      0.0060300927   1.0033703      0.0017041603 
    783000   1.0523511      0.0062161617   1.0445238      5.4283314e-08
    784000   1.017674       0.0056435418   1.0078391     -0.0022654362 
    785000   0.98184348     0.0065384393   0.97324593    -0.001294582  
    786000   0.99030409     0.0064334291   0.98293819     0            
    787000   1.0631829      0.0073534426   1.0552749      0            
    788000   0.99538787     0.0065081248   0.98798416     0            
    789000   0.94807988     0.0057317015   0.94102805     0            
    790000   0.94606644     0.0056007772   0.93902958     0            
    791000   1.03916        0.0075662465   1.0299637     -0.0014670755 
    792000   1.0726881      0.0064571293   1.0643777     -0.00033176253
    793000   0.96151615     0.0057079967   0.9543445     -1.9873409e-05
    794000   0.98491462     0.0065922337   0.97753781    -5.0998577e-05
    795000   1.0023405      0.0066577088   0.99380166    -0.001083411  
    796000   0.9227628      0.0050543626   0.91424638    -0.0016528926 
    797000   1.0012972      0.0074531442   0.993962       0.00011247841
    798000   0.99879342     0.0070892694   0.99136438     0            
    799000   1.0194427      0.0060122119   1.0118601      0            
    800000   1.0398775      0.0059459191   1.0321429      0            
    801000   1.036701       0.0059489291   1.02899        0            
    802000   1.0666519      0.0067678203   1.0587181      0            
    803000   1.0727153      0.0064853435   1.0647364      0            
    804000   0.98052057     0.0057134153   0.97322744     1.109187e-10 
    805000   0.99636044     0.0062351315   0.9889495      5.5533295e-11
    806000   0.97146218     0.0060865501   0.96436637     0.00012994278
    807000   1.0156691      0.0064737435   1.0081145      0            
    808000   0.90291939     0.005124455    0.89620346     0            
    809000   1.0149533      0.0058528795   1.007404       0            
    810000   1.0067852      0.0060044069   0.99929667     0            
    811000   0.97848163     0.0062161202   0.97120367     0            
    812000   1.0333194      0.0058397041   1.0256728      3.9329852e-05
    813000   0.99368525     0.0066184108   0.9862942      0            
    814000   1.0253498      0.0062192898   1.0203986      0.0026754401 
    815000   1.010754       0.0064129239   1.0016024     -0.0016335218 
    816000   0.98869608     0.0064548872   0.97942397    -0.0019181715 
    817000   0.96658071     0.0052503978   0.95908018    -0.00031109265
    818000   0.98449948     0.0064856394   0.97736568     0.00018892573
    819000   1.0523048      0.0064717574   1.0451619      0.00068416659
    820000   0.95454838     0.0070071819   0.94744843     0            
    821000   0.98039053     0.0049951134   0.97198177    -0.0011165939 
    822000   1.0092335      0.0050160335   1.0017489      2.2095097e-05
    823000   1.0239039      0.0063140496   1.016288       0            
    824000   1.0462172      0.0059432932   1.03963        0.0011945879 
    825000   1.011133       0.0060929221   1.0036122      0            
    826000   0.98705009     0.0061992639   0.97970839     0            
    827000   0.97877021     0.0059409559   0.9714901      0            
    828000   0.95223274     0.0065640333   0.94515031     2.9941086e-07
    829000   0.96244846     0.0057844336   0.95396709    -0.0013226566 
    830000   0.99637283     0.0066406824   0.98896179     8.8248485e-10
    831000   0.96533836     0.0057534498   0.95713422    -0.0010239365 
    832000   0.96649319     0.0057856322   0.95570603    -0.0035983768 
    833000   1.010299       0.0071503329   1.0000839     -0.0027005028 
    834000   1.0219865      0.0059383023   1.0129644     -0.0014206013 
    835000   0.9468353      0.0058751126   0.93700425    -0.0027884739 
    836000   1.0134979      0.0056621383   1.0056912     -0.00026829012
    837000   1.0433948      0.0064555422   1.0361072      0.00047315019
    838000   1.0534719      0.0069699104   1.0455186     -0.00011756324
    839000   0.98216559     0.0057270504   0.97486022     0            
    840000   1.0240507      0.0062056218   1.0162794     -0.00015439234
    841000   1.0076457      0.006724974    1.0001508      0            
    842000   0.98063459     0.0064455245   0.97239577    -0.0009448404 
    843000   0.96898324     0.0070824459   0.96149497    -0.0002809569 
    844000   1.0160593      0.0065006062   1.0070951     -0.0014067994 
    845000   1.0643758      0.0065982151   1.0564589      2.7218394e-13
    846000   1.0540948      0.0059144493   1.0455139     -0.00074047254
    847000   0.9960359      0.0060294568   0.98572748    -0.0028998916 
    848000   1.0184861      0.0053306048   1.0108712     -3.942857e-05 
    849000   0.94413375     0.0063493501   0.93391581    -0.003195453  
    850000   1.0693577      0.0067151732   1.0602458     -0.001158018  
    851000   1.0097937      0.0060107673   1.0011069     -0.0011759495 
    852000   0.95823417     0.0065622851   0.94994832    -0.0011584918 
    853000   0.99356732     0.0066466411   0.98617322    -3.929913e-06 
    854000   1.0080073      0.0061695155   0.99933993    -0.0011698234 
    855000   0.95987902     0.0070664968   0.95124445    -0.001494976  
    856000   1.0491348      0.0068583541   1.0411233     -0.00020803826
    857000   0.91934799     0.0053374365   0.91059796    -0.0019119099 
    858000   1.0177308      0.0053430634   1.0088416     -0.0013192403 
    859000   1.0032671      0.0057800936   0.9958048      0            
    860000   1.018296       0.0054402045   1.0107219      0            
    861000   1.0254869      0.0069274416   1.0180095      0.00015017872
    862000   1.0247213      0.005682966    1.0171276      2.8213522e-05
    863000   1.0050873      0.0069430361   0.99839034     0.00077894273
    864000   1.0318731      0.0063967043   1.0230803     -0.001117786  
    865000   1.0096459      0.0062875721   1.000672      -0.0014641604 
    866000   1.022277       0.0058295274   1.0146297     -4.3572037e-05
    867000   0.97119848     0.0056709238   0.96356198    -0.00041271001
    868000   1.0171236      0.0058736652   1.0095581     -1.5238525e-07
    869000   0.99689521     0.0069890289   0.99004113     0.00056084234
    870000   0.98561245     0.0067777346   0.97663494    -0.0016465137 
    871000   0.91565662     0.0051891962   0.90584465    -0.0030013034 
    872000   1.006739       0.0060899846   0.9975469     -0.0017039122 
    873000   1.0151555      0.0063356296   1.0086163      0.0010115019 
    874000   0.99265943     0.0065334397   0.98358391    -0.0016921012 
    875000   0.98809186     0.0071708086   0.97936207    -0.0013803523 
    876000   0.99173197     0.0060099      0.98516899     0.00081354205
    877000   1.0376073      0.0069497876   1.0298897      1.5504863e-07
    878000   0.93181182     0.0060602129   0.92304546    -0.0018355224 
    879000   0.99680056     0.00511027     0.98740966    -0.0019766757 
    880000   1.0045495      0.0053115234   0.9944154     -0.0026622034 
    881000   0.96883993     0.0062666257   0.96026547    -0.0013682034 
    882000   1.0247405      0.0062865215   1.0168431     -0.00027534594
    883000   0.94131652     0.0067861306   0.934315       6.1674052e-09
    884000   0.95573939     0.0059067037   0.94753938    -0.0010912029 
    885000   1.0812729      0.0072801899   1.0730233     -0.00020700019
    886000   0.97822152     0.0069633485   0.97084204    -0.0001034531 
    887000   1.0055332      0.0068559434   0.99701262    -0.001041436  
    888000   1.0479302      0.0065478083   1.0401357      0            
    889000   1.0153439      0.0055284722   1.0073152     -0.00047649728
    890000   0.98669328     0.0056076828   0.97808187    -0.0012723766 
    891000   0.99742643     0.0065389163   0.98975104    -0.00025651988
    892000   0.95341685     0.005459227    0.94377279    -0.0025525303 
    893000   1.06608        0.0063687705   1.0571691     -0.00098135728
    894000   1.0627738      0.0061853591   1.0563463      0.0014775008 
    895000   1.0322874      0.0061883779   1.0246093      2.9440515e-14
    896000   0.99503055     0.0056047112   0.98469565    -0.0029338449 
    897000   0.94693987     0.0057003077   0.93894952    -0.00094699108
    898000   1.0349655      0.0073298858   1.0262136     -0.0010538407 
    899000   1.0254605      0.0067358415   1.0167205     -0.0011126142 
    900000   1.0186445      0.0061764705   1.010427      -0.00064083475
    901000   0.98618015     0.0057246967   0.97973842     0.00089348939
    902000   1.0409404      0.0069697088   1.0309286     -0.0022692645 
    903000   0.98810338     0.0060533832   0.97922128    -0.0015325786 
    904000   1.0151071      0.0057466991   1.006462      -0.0010947487 
    905000   1.0121562      0.0062597063   1.0040667     -0.00056106029
    906000   1.0136467      0.0061585302   1.0052575     -0.00084965137
    907000   0.98562388     0.0063892798   0.97682218    -0.0014706143 
    908000   0.9300893      0.0053124502   0.92119539    -0.0019758954 
    909000   1.0277476      0.0060685307   1.0190747     -0.0010284846 
    910000   1.0016365      0.0064750699   0.99312777    -0.0010585081 
    911000   0.9825336      0.0061408861   0.9735726     -0.0016528926 
    912000   1.0665152      0.0062557113   1.0584877     -9.470865e-05 
    913000   0.95829806     0.0055741838   0.95117025     1.9410545e-08
    914000   1.0401407      0.0060841511   1.0324041      2.2795514e-10
    915000   0.99756037     0.006155593    0.9901405      0            
    916000   1.0391814      0.0064803267   1.0313569     -9.5040625e-05
    917000   0.99823512     0.0059720383   0.99081023     0            
    918000   0.9598155      0.0059969704   0.95297498     0.00029860295
    919000   0.98450558     0.0057634452   0.97758626     0.00040345302
    920000   0.95793588     0.0050915569   0.95093331     0.00012257881
    921000   1.0505706      0.006368084    1.0428101      5.3581561e-05
    922000   0.97079108     0.0061016358   0.96213061    -0.0014397157 
    923000   1.0293121      0.0072127091   1.0208694     -0.000786659  
    924000   0.98593896     0.0050070204   0.97746575    -0.001139778  
    925000   1.1502297      0.0075325159   1.1413491     -0.00032517936
    926000   1.0033549      0.0054271367   0.99573116    -0.00016073566
    927000   1.0203715      0.0065577742   1.0125922     -0.00018974931
    928000   0.98967757     0.0058180334   0.98223971    -7.6624405e-05
    929000   0.93271898     0.0063513731   0.92401466    -0.0017667347 
    930000   1.0264534      0.0073414418   1.0169015     -0.0019170892 
    931000   0.90157691     0.0051887504   0.89615661     0.0012856372 
    932000   0.99814382     0.0059889365   0.98933009    -0.0013895197 
    933000   1.0004287      0.0060783057   0.99146077    -0.0015267264 
    934000   1.0091562      0.0053350704   1.0015917     -5.841735e-05 
    935000   0.92548668     0.0050570143   0.91842552    -0.000177372  
    936000   1.006061       0.0058888285   0.99857795     4.6952462e-13
    937000   1.0065312      0.0055639038   0.99631222    -0.0027324026 
    938000   0.99467093     0.0057495265   0.98469811    -0.0025744343 
    939000   0.89677729     0.0050555009   0.89114792     0.0010408794 
    940000   0.99918986     0.0056930879   0.99011384    -0.0016440359 
    941000   0.98167766     0.0064388187   0.97328023    -0.0010956897 
    942000   1.0260667      0.0059753089   1.017843      -0.0005918122 
    943000   0.90804678     0.0069302763   0.9009469     -0.00034580925
    944000   0.99236972     0.0062707831   0.98388478    -0.0011036751 
    945000   1.0418629      0.0068654808   1.0341135      0            
    946000   0.99134392     0.006453983    0.9824384     -0.0015318944 
    947000   0.97947841     0.0059891432   0.97098131    -0.0012117205 
    948000   1.0679899      0.0079349493   1.0587721     -0.001274077  
    949000   0.95523933     0.0062211406   0.94670666    -0.0014275894 
    950000   1.0353801      0.0067056641   1.027679       2.248379e-09 
    951000   0.98198101     0.0050608056   0.97338394    -0.0012930791 
    952000   1.0350819      0.0066160095   1.027383       0            
    953000   1.0074406      0.0059021853   1.0000376      9.039511e-05 
    954000   1.0907468      0.0057436628   1.0826338      0            
    955000   1.0443602      0.0072180217   1.0370418      0.00044951575
    956000   1.0164434      0.0062826841   1.0088831      1.3386361e-12
    957000   1.0077715      0.0059293041   1.0000608     -0.00021483749
    958000   0.95466356     0.0055195475   0.94755768    -5.0741153e-06
    959000   1.059145       0.0058321262   1.050363      -0.00090413328
    960000   1.0020657      0.0054284615   0.99461233     0            
    961000   0.98349177     0.0053786696   0.97477138    -0.0014051621 
    962000   0.9834934      0.0059283852   0.9751451     -0.0010330609 
    963000   0.96670616     0.0055888803   0.9580349     -0.001480883  
    964000   0.97219968     0.0054420029   0.96496844     0            
    965000   1.082032       0.0068655725   1.0739811     -2.7677152e-06
    966000   1.0341412      0.0056749206   1.0264434     -5.8713939e-06
    967000   1.0176131      0.0068001799   1.0083237     -0.0017203907 
    968000   0.97128693     0.006550673    0.96124019    -0.0028222919 
    969000   0.98727852     0.0063707823   0.97840833    -0.0015267961 
    970000   1.0694204      0.0063249631   1.0609697     -0.00049628391
    971000   1.0372898      0.0064805129   1.0278053     -0.0017691134 
    972000   1.0643268      0.0062752538   1.0542554     -0.0021550014 
    973000   1.0581581      0.0056124164   1.0479733     -0.0023141146 
    974000   0.98158728     0.0059064254   0.9713061     -0.0029801182 
    975000   0.99062401     0.0059057108   0.98245111    -0.00080462499
    976000   0.97953466     0.0055370525   0.97224887     0            
    977000   0.98227271     0.0054303181   0.97496655     0            
    978000   0.95842417     0.0059456883   0.9512954      0            
    979000   0.98969277     0.0066952539   0.98233142     0            
    980000   0.96900263     0.0061943542   0.96147626    -0.00031890644
    981000   1.0341035      0.0065532353   1.0250236     -0.0013882287 
    982000   0.9678951      0.005733797    0.96069119    -4.6868058e-06
    983000   0.99157783     0.0058779108   0.98425901     5.6559597e-05
    984000   0.93639535     0.0059020819   0.92831337    -0.0011170463 
    985000   1.0258812      0.0059966439   1.0165978     -0.0016528926 
    986000   1.0699873      0.0062410176   1.0621002      7.1478458e-05
    987000   0.99533346     0.0065542073   0.98793016     1.4722368e-10
    988000   0.99944503     0.006052381    0.99108147    -0.00092967356
    989000   1.0767864      0.0067851659   1.0677475     -0.001029748  
    990000   0.99819954     0.0058514363   0.99077492     8.3060613e-09
    991000   0.97288149     0.0053568429   0.96312498    -0.002520206  
    992000   0.96261625     0.0063031523   0.95326945    -0.0021868435 
    993000   0.9510823      0.0062396252   0.94376307    -0.00024506586
    994000   0.95803632     0.0059524443   0.95041224    -0.00049818964
    995000   0.97911345     0.0062160262   0.96925223    -0.0025785529 
    996000   1.00679        0.0064652241   0.99853392    -0.00076759514
    997000   1.0107149      0.0073226971   1.0033356      0.00013840017
    998000   1.0268073      0.0059952857   1.0182892     -0.00088072384
    999000   0.98447413     0.0060708955   0.97715159     0            
   1000000   0.98359273     0.0059215918   0.97627675     0            
Loop time of 26.3966 on 1 procs for 1000000 steps with 605 atoms

Performance: 32731519.973 tau/day, 37883.704 timesteps/s
99.2% CPU use with 1 MPI tasks x no OpenMP threads

MPI task timing breakdown:
Section |  min time  |  avg time  |  max time  |%varavg| %total
---------------------------------------------------------------
Pair    | 1.1897     | 1.1897     | 1.1897     |   0.0 |  4.51
Bond    | 0.042084   | 0.042084   | 0.042084   |   0.0 |  0.16
Neigh   | 6.3991     | 6.3991     | 6.3991     |   0.0 | 24.24
Comm    | 1.233      | 1.233      | 1.233      |   0.0 |  4.67
Output  | 0.46051    | 0.46051    | 0.46051    |   0.0 |  1.74
Modify  | 15.162     | 15.162     | 15.162     |   0.0 | 57.44
Other   |            | 1.911      |            |       |  7.24

Nlocal:            605 ave         605 max         605 min
Histogram: 1 0 0 0 0 0 0 0 0 0
Nghost:             87 ave          87 max          87 min
Histogram: 1 0 0 0 0 0 0 0 0 0
Neighs:              2 ave           2 max           2 min
Histogram: 1 0 0 0 0 0 0 0 0 0

Total # of neighbors = 2
Ave neighs/atom = 0.0033057851
Ave special neighs/atom = 0
Neighbor list builds = 218303
Dangerous builds = 0
Total wall time: 0:00:26
