fix fLANG all langevin 1.0 1.0 1.0 100
neigh_modify exclude molecule/intra all
fix rigidNVE linked_vesicle rigid/nve molecule
  1 rigid bodies with 5 atoms
fix NVE synapsin nve 1.0 1.0 1.0

    ##======================================##
    ## Output
    ##======================================##

thermo 1000
thermo_style custom step temp press etotal epair
thermo_modify flush yes
timestep 0.01

    ##======================================##
    ## Equilibration before output
    ##======================================##


    ##======================================##
    ## Run with output
    ##======================================##

fix enforce_2d all enforce2d
dump 2 all custom 1000 Results_eps_attr1.3_eps_rep1_range2_attr_with_repFalse_n_synapsin400_n_vesicles1/Movie_2d_eps_attr1.3_eps_rep1_range2_attr_with_repFalse_n_synapsin400_n_vesicles1.xyz id type mol x y z
run 1000000
Generated 0 of 3 mixed pair_coeff terms from geometric mixing rule
Neighbor list info ...
  update every 1 steps, delay 1 steps, check yes
  max neighbors/atom: 2000, page size: 100000
  master list distance cutoff = 11.52462
  ghost atom cutoff = 11.52462
  binsize = 5.7623102, bins = 55 55 1
  1 neighbor lists, perpetual/occasional/extra = 1 0 0
  (1) pair cosine/squared, perpetual
      attributes: half, newton on
      pair build: half/bin/newton
      stencil: half/bin/2d
      bin: standard
Per MPI rank memory allocation (min/avg/max) = 8.526 | 8.526 | 8.526 Mbytes
   Step          Temp          Press          TotEng         E_pair    
         0   0.99441908    -0.013071225    0.98336998     0            
      1000   1.052877       0.0040548885   1.0411809      2.5044906e-06
      2000   0.97902644     0.0030040622   0.96849889     0.00035052091
      3000   1.0601207      0.0035583022   1.0483416      0            
      4000   1.0466423      0.0043625821   1.0350129      0            
      5000   1.0005436      0.0035020426   0.98945454     2.8061539e-05
      6000   0.97028404     0.0030784247   0.95950311     0            
      7000   0.9429228      0.0035389451   0.9342467      0.001800821  
      8000   1.070792       0.0042930144   1.0588943      0            
      9000   1.099818       0.0040939823   1.0875978      0            
     10000   1.0641275      0.0047774095   1.0521293     -0.00017452974
     11000   0.9617883      0.0044412262   0.95110176     0            
     12000   0.92920507     0.0051591732   0.91888057     0            
     13000   0.95567106     0.0032720615   0.9450525      0            
     14000   1.060619       0.0040579948   1.0488344      0            
     15000   0.96710242     0.0039746882   0.95635684     0            
     16000   0.96329422     0.0041685692   0.95261944     2.8488409e-05
     17000   1.0127921      0.0043896097   1.0014324     -0.00010648155
     18000   1.0862883      0.00471201     1.0714914     -0.0027269638 
     19000   0.99286416     0.0040330564   0.98183233     0            
     20000   0.97970884     0.003804451    0.96882318     0            
     21000   0.95950403     0.004874189    0.95175614     0.0029132613 
     22000   0.90252694     0.0039632846   0.89249886     0            
     23000   0.91012442     0.0039479565   0.89405289    -0.005959033  
     24000   0.95655859     0.0040053497   0.94593016     0            
     25000   0.94943845     0.005378768    0.93888913     0            
     26000   0.96867413     0.0034644714   0.9559695     -0.0019415801 
     27000   1.0000439      0.0035190999   0.98835935    -0.00057298659
     28000   1.0278124      0.003962138    1.0163922      0            
     29000   1.037834       0.0047982913   1.0248056     -0.0014969186 
     30000   0.9609569      0.0034869405   0.94625093    -0.0040286735 
     31000   0.98053336     0.0038476828   0.96792324    -0.0017153102 
     32000   1.0557484      0.0048073332   1.0382375     -0.0057803756 
     33000   1.0389571      0.0039833812   1.0247404     -0.0026726608 
     34000   0.95892329     0.0047984675   0.94826858     0            
     35000   1.0463599      0.0045694496   1.0347337      0            
     36000   0.99148283     0.0033335412   0.98079994     0.00033358873
     37000   1.0155863      0.0043698824   1.0043225      2.0573522e-05
     38000   0.99905809     0.0039267273   0.98854887     0.00059142001
     39000   0.90365661     0.0031152718   0.89361598     0            
     40000   1.0364274      0.0042538235   1.0249116      0            
     41000   0.93166761     0.0042526936   0.92201681     0.00070106786
     42000   1.0381929      0.0044045513   1.0266574      0            
     43000   0.99003096     0.0035142354   0.98558921     0.0065585956 
     44000   1.0450992      0.0046059523   1.033487       0            
     45000   1.0365517      0.0042880656   1.0250345      0            
     46000   1.0609484      0.0039928646   1.0491601      0            
     47000   0.98706277     0.0034766174   0.97609541     0            
     48000   1.0663667      0.0040932776   1.0513995     -0.0031186669 
     49000   0.9996801      0.0039892675   0.98857255     0            
     50000   0.95675725     0.0031129891   0.94612661     0            
     51000   1.0236768      0.0038113438   1.0123026      0            
     52000   1.1035302      0.0040965324   1.0912688      0            
     53000   1.0351266      0.0044999102   1.0234466     -0.0001786179 
     54000   1.0707486      0.0044802282   1.0590346      0.00018322049
     55000   0.99479672     0.0049433312   0.98374343     0            
     56000   1.0459539      0.0043901224   1.0343322      0            
     57000   0.99450148     0.0035109439   0.98518719     0.0017357271 
     58000   0.97554482     0.0039842681   0.96470543     0            
     59000   1.0088646      0.0050203435   0.99765499     0            
     60000   1.0150062      0.0042380784   1.0036007     -0.00012769502
     61000   1.0501381      0.0045127795   1.0384699      0            
     62000   0.98114036     0.0041126709   0.9702388      0            
     63000   1.0699428      0.0041055883   1.0580545      0            
     64000   0.98723526     0.0034369012   0.97626598     0            
     65000   1.0520586      0.0049162183   1.0403691      0            
     66000   1.0433288      0.0032688885   1.0317362      0            
     67000   0.99172882     0.003385292    0.98070961     0            
     68000   0.99541965     0.0044828594   0.98435943     0            
     69000   0.99710055     0.0039486819   0.98438012    -0.0016415287 
     70000   1.0416342      0.0039533383   1.0283102     -0.0017503042 
     71000   0.96822248     0.004543994    0.9556001     -0.0018643461 
     72000   1.0396422      0.0032604071   1.0280906      0            
     73000   0.95295806     0.0052310427   0.94236964     0            
     74000   0.92775242     0.0043314638   0.91744406     0            
     75000   1.0290732      0.0043987267   1.0176391      0            
     76000   1.0629179      0.0045595788   1.0492473     -0.0018604081 
     77000   1.037246       0.0048886066   1.025721       0            
     78000   0.98833262     0.0032756805   0.97735115     0            
     79000   1.0222846      0.0035976492   1.0109259      0            
     80000   1.0709541      0.0046558395   1.0595586      0.0005039217 
     81000   0.96812734     0.0033757963   0.95720437    -0.00016600087
     82000   1.0195421      0.0039676776   1.0082138      0            
     83000   0.99440248     0.0039221949   0.98335357     0            
     84000   0.91859342     0.0039661366   0.90692697    -0.0014598482 
     85000   0.95507832     0.0035369144   0.94559764     0.0011313058 
     86000   1.0137047      0.0050858033   1.0024153     -2.5976714e-05
     87000   0.96837991     0.0037927649   0.95762013     0            
     88000   1.0099932      0.0035215357   0.99453194    -0.004239125  
     89000   0.9825002      0.003581703    0.96999348    -0.0015900517 
     90000   0.98688121     0.0044714141   0.97328196    -0.0026339053 
     91000   0.99143836     0.0045800789   0.98007735    -0.0003450351 
     92000   1.0174383      0.004239158    1.0058356     -0.00029783445
     93000   1.0482524      0.0044651928   1.0340914     -0.0025137591 
     94000   1.004088       0.0042602682   0.99293151     0            
     95000   1.00297        0.0038432198   0.98902917    -0.0027967079 
     96000   1.0515118      0.0045001224   1.0426989      0.0028706574 
     97000   0.94958325     0.0044331289   0.93623374    -0.0027985822 
     98000   0.97157956     0.0041359732   0.96049213    -0.00029210644
     99000   0.97091309     0.0033611649   0.96022508     9.9917729e-05
    100000   0.97872287     0.0043741747   0.96757857    -0.00026960029
    101000   1.1094937      0.0051561192   1.097166       0            
    102000   0.98217135     0.0047085459   0.97125833     0            
    103000   1.0743673      0.0052432199   1.0624298      0            
    104000   0.97180727     0.0046047341   0.96333207     0.0023226616 
    105000   0.98501801     0.0033399429   0.97407337     0            
    106000   0.96462856     0.0040201572   0.9526173     -0.0012931573 
    107000   1.0185929      0.0043526729   1.0066577     -0.00061752186
    108000   0.94719259     0.0038172467   0.93692547     0.0002572421 
    109000   0.97987429     0.0036106086   0.9689868      0            
    110000   1.0571317      0.0037684974   1.0453858      0            
    111000   1.0358976      0.0050727557   1.0251057      0.00071799694
    112000   1.0160788      0.0045746655   1.0047891      0            
    113000   1.0142973      0.0043876411   1.0030273      0            
    114000   1.0201429      0.0044346642   1.0090945      0.00028658665
    115000   1.1201684      0.0054426609   1.1078592      0.00013707401
    116000   1.0388879      0.0038434511   1.0273447      0            
    117000   1.0240603      0.0046559597   1.0126818      0            
    118000   1.0798665      0.0043405393   1.0678144     -5.364627e-05 
    119000   1.0367614      0.0036222482   1.0252418      0            
    120000   1.0310277      0.0043988766   1.0195719      0            
    121000   1.0841222      0.004785344    1.070096      -0.0019803252 
    122000   0.94769755     0.0038964805   0.9324224     -0.0047451713 
    123000   1.0363815      0.0041550665   1.0231676     -0.0016985662 
    124000   0.9617019      0.0039739608   0.95101632     0            
    125000   0.98925343     0.0033210523   0.97524852    -0.0030132088 
    126000   1.0165406      0.0047588213   1.0052457      0            
    127000   0.99201394     0.0045001985   0.98099157     0            
    128000   1.0626855      0.0041766307   1.0462621     -0.0046158005 
    129000   1.0192995      0.003452309    1.0079739      0            
    130000   0.99338407     0.0033626924   0.98234647     0            
    131000   1.0096245      0.0039677441   0.99840647     0            
    132000   0.93724848     0.0039546825   0.92683461     0            
    133000   0.981319       0.0037404726   0.97041545     0            
    134000   1.059818       0.00458597     1.0482823      0.0002400456 
    135000   1.0643741      0.0044862492   1.0525477      0            
    136000   0.90916271     0.0040757526   0.8990609      0            
    137000   0.9708779      0.0038641693   0.96009037     0            
    138000   0.97582924     0.0041746485   0.96498669     0            
    139000   0.97201921     0.0029862333   0.96121936     3.614538e-07 
    140000   0.98459872     0.0043888936   0.97365874     0            
    141000   0.98828432     0.0037131205   0.97730338     0            
    142000   1.03393        0.0050193433   1.0225039      6.2077572e-05
    143000   0.92154372     0.003056915    0.91130435     0            
    144000   1.043221       0.0043090514   1.0316296      0            
    145000   0.91260622     0.0039608319   0.90246616     0            
    146000   0.95964808     0.0040920146   0.94898532     0            
    147000   1.0293773      0.0041566738   1.0179397      0            
    148000   1.0068927      0.0047980444   0.99570498     0            
    149000   0.90345631     0.0041144353   0.8934451      2.718636e-05 
    150000   0.99468052     0.0045846818   0.98362851     0            
    151000   0.96920513     0.0046786354   0.95843618     0            
    152000   1.0720126      0.0058631714   1.0601013      0            
    153000   0.98296281     0.0041654828   0.97187618    -0.00016482252
    154000   1.0471801      0.0040135287   1.0347723     -0.00077244905
    155000   1.1153478      0.0042833704   1.102955       0            
    156000   1.0794708      0.0048636428   1.0674753     -1.3520873e-06
    157000   0.96575068     0.0042730374   0.95116467    -0.0038554496 
    158000   1.0433021      0.0034117281   1.0299306     -0.001779261  
    159000   0.9773514      0.0042044657   0.96380051    -0.0026914344 
    160000   0.99446719     0.0044069828   0.98341755     0            
    161000   0.95098776     0.0035165407   0.94042123     0            
    162000   1.0393591      0.0042130287   1.0278107      0            
    163000   1.0260653      0.0038547161   1.0146646      0            
    164000   1.0263254      0.0048562885   1.0149218      0            
    165000   1.0608009      0.0054350724   1.0490142      0            
    166000   0.9298134      0.0031166235   0.91948214     0            
    167000   1.0062696      0.0043817709   0.99892816     0.0038393594 
    168000   1.0874602      0.0050612953   1.0753773      0            
    169000   1.0300246      0.0038666231   1.0185799      0            
    170000   0.98955691     0.0039217343   0.97856184     0            
    171000   1.0123301      0.0035072025   1.001082       0            
    172000   1.0550478      0.0041254203   1.0433251      0            
    173000   1.0221379      0.0050065002   1.0112797      0.00049885715
    174000   1.0651199      0.0039932633   1.0532853      0            
    175000   0.98927733     0.004045681    0.97828536     0            
    176000   0.9400008      0.0035693322   0.92401481    -0.0055415357 
    177000   0.98958178     0.0030254587   0.97821787    -0.00036854991
    178000   0.97647571     0.0034920733   0.96562598     0            
    179000   0.99723731     0.0036652438   0.9861569      0            
    180000   0.96733133     0.0034751074   0.9565832      0            
    181000   0.99798842     0.0035444411   0.98689966     0            
    182000   0.99758049     0.0043267602   0.98649626     0            
    183000   1.0403433      0.0043412573   1.0287839      0            
    184000   1.0483849      0.0042336728   1.0367361      0            
    185000   1.0214839      0.0041018406   1.0101341      0            
    186000   0.99339372     0.0033668693   0.98235601     0            
    187000   0.98008215     0.0037872732   0.96919235     0            
    188000   1.0367841      0.0046007338   1.0252643      0            
    189000   0.911227       0.0032127285   0.90110226     0            
    190000   1.0533205      0.0046455651   1.041617       0            
    191000   1.0418993      0.0040073727   1.0303227      0            
    192000   1.0488765      0.0038142852   1.0372223      0            
    193000   1.01406        0.0041545026   1.0027926      0            
    194000   0.97910841     0.0039603393   0.96822942     0            
    195000   1.0609668      0.0041334812   1.0491782      0            
    196000   1.0508219      0.0037677066   1.0391475      1.4474374e-06
    197000   0.99085067     0.0043205953   0.98213857     0.0022973501 
    198000   0.92856898     0.0028362434   0.91825155     0            
    199000   0.96319413     0.0041471338   0.95249197     0            
    200000   0.99662259     0.0040212428   0.985549       0            
    201000   1.0211241      0.0040157039   1.0097783      0            
    202000   1.0006779      0.0042712613   0.99040197     0.00084271536
    203000   0.97038261     0.0040179554   0.95960058     0            
    204000   0.97346865     0.0028625732   0.96265233     0            
    205000   0.97388078     0.004485175    0.96305988     0            
    206000   0.96946313     0.0035180011   0.95869132     0            
    207000   1.0426145      0.0050180397   1.0310299      0            
    208000   0.9694711      0.0037523345   0.9586992      0            
    209000   1.0049065      0.0041487517   0.9937409      0            
    210000   1.0121229      0.0041478867   1.0008771      0            
    211000   1.0563891      0.0046011379   1.0446515      0            
    212000   0.98307437     0.0049013385   0.97215132     0            
    213000   0.97449842     0.0037546556   0.96367066     0            
    214000   1.0189518      0.0035617872   1.0076301      0            
    215000   1.0045744      0.0038667257   0.99341243     0            
    216000   0.99527421     0.0044025605   0.98107665    -0.0031389609 
    217000   0.96051647     0.0037528391   0.94984212    -1.9383192e-06
    218000   1.0298866      0.0041156873   1.0188254      0.00038201162
    219000   0.97867496     0.0047932177   0.9678008      0            
    220000   1.0597788      0.0044811832   1.0451872     -0.0028162733 
    221000   1.1056582      0.0051523526   1.0933731      0            
    222000   1.0171809      0.0040711331   1.0058789      0            
    223000   0.94615786     0.0045847048   0.93435063    -0.0012943648 
    224000   1.0043502      0.0044027686   0.99198841    -0.0012023431 
    225000   1.0240166      0.0043213118   1.0126386      0            
    226000   0.97467127     0.0032702512   0.96498769     0.0011461082 
    227000   1.0591891      0.0044602269   1.0474203      0            
    228000   1.0310459      0.0049575337   1.0195899      0            
    229000   1.0851645      0.004682027    1.0731071      0            
    230000   0.98798461     0.0039784872   0.97449663    -0.0025103723 
    231000   1.0321592      0.0041646245   1.0206908      0            
    232000   1.0688319      0.0038359699   1.056956       0            
    233000   1.0042289      0.00318656     0.99307082     0            
    234000   0.94024779     0.0041600564   0.9298006      0            
    235000   1.0022034      0.0044762168   0.99106778     0            
    236000   1.0879805      0.0047484234   1.0758918      0            
    237000   1.047974       0.00569255     1.0363298      0            
    238000   0.99679471     0.0039584147   0.98329003    -0.0024291859 
    239000   0.91922853     0.0033457989   0.90901488     0            
    240000   0.99454098     0.0039169615   0.98217759    -0.0013129297 
    241000   0.92320474     0.003864752    0.9118963     -0.0010506028 
    242000   0.98086881     0.0036173954   0.96807584    -0.0018944305 
    243000   0.9392325      0.0034124831   0.92688612    -0.0019104656 
    244000   0.94715921     0.0042974948   0.93383993    -0.0027952816 
    245000   0.94636901     0.0033103891   0.9358538      0            
    246000   0.97015042     0.0039155892   0.95937097     0            
    247000   1.0988339      0.0046906843   1.0866246      0            
    248000   0.97717003     0.0034564551   0.96558508    -0.0007275124 
    249000   1.0710187      0.0041627289   1.0591185      0            
    250000   0.95675084     0.0034488257   0.94612027     0            
    251000   0.93369991     0.0038630807   0.92315708    -0.00016838798
    252000   0.95136309     0.0048171958   0.94079239     0            
    253000   0.99790717     0.004680886    0.98681931     0            
    254000   1.0273759      0.0050976247   1.014142      -0.0018185596 
    255000   0.94154285     0.0040771727   0.92815767    -0.002923596  
    256000   0.94820827     0.0045035531   0.93767262     0            
    257000   0.99840234     0.003303824    0.98440232    -0.0029066639 
    258000   1.0231738      0.0044769886   1.0122713      0.00046606288
    259000   1.0186054      0.0032483367   1.0072875      0            
    260000   0.92286032     0.0039497694   0.91213189    -0.00047442646
    261000   1.0101613      0.0042301492   0.99902124     8.3976508e-05
    262000   0.96265689     0.0033934195   0.94892571    -0.0030349875 
    263000   0.95273866     0.0040470361   0.93910952    -0.003043153  
    264000   1.0077444      0.0045751749   0.99654728     0            
    265000   1.0416338      0.0052797528   1.0300601      0            
    266000   0.99406174     0.0043524675   0.98301661     0            
    267000   0.92900781     0.004216991    0.9186855      0            
    268000   0.99247194     0.0041477625   0.98144447     0            
    269000   0.96548778     0.0031302807   0.95476014     0            
    270000   1.0486955      0.0055393221   1.0371307      8.7357604e-05
    271000   1.0282492      0.0034927478   1.0168243      0            
    272000   0.94807927     0.0038981362   0.93754506     0            
    273000   1.0378142      0.0050966006   1.026283       0            
    274000   0.99617436     0.004558884    0.98470291    -0.00040285057
    275000   0.97831924     0.0039518646   0.96744903     0            
    276000   1.0100155      0.0040468376   0.99670168    -0.0020913975 
    277000   0.88956664     0.0029781251   0.87968257     0            
    278000   1.0455976      0.0045640986   1.0315173     -0.0024626388 
    279000   0.95713374     0.003904196    0.94366032    -0.0028386044 
    280000   0.99994887     0.003707977    0.99207539     0.0032370617 
    281000   1.0565649      0.0040417615   1.0448253      0            
    282000   1.0388179      0.0048011159   1.0265184     -0.00075707663
    283000   0.91810428     0.003391337    0.90790312     0            
    284000   1.0231438      0.0034397385   1.0117756      0            
    285000   1.0329087      0.0034273113   1.021432       0            
    286000   1.0067061      0.0039249847   0.99408099    -0.0014395023 
    287000   1.0339973      0.0048471936   1.0232403      0.00073189215
    288000   0.93423395     0.0044228481   0.92297936    -0.00087420924
    289000   0.96605276     0.0036417223   0.95531884     0            
    290000   1.0142807      0.0041898481   1.0030109      0            
    291000   0.95316791     0.0040707532   0.94260294     2.5782076e-05
    292000   0.99080146     0.0042596502   0.98202801     0.002235455  
    293000   0.99452584     0.0041991788   0.98203005    -0.0014455066 
    294000   0.96578095     0.0040772685   0.95505005     0            
    295000   1.0142011      0.0040904845   1.0029166     -1.5584127e-05
    296000   0.91401944     0.0037079388   0.90498949     0.0011258194 
    297000   1.0319457      0.0050103483   1.0204796      0            
    298000   1.0658938      0.0043661843   1.0540247     -2.5807178e-05
    299000   0.95849344     0.0047497438   0.94784352     0            
    300000   0.99778844     0.004097833    0.98840302     0.0017011215 
    301000   1.0173448      0.004027849    1.0067643      0.00072332067
    302000   0.98473952     0.0052859177   0.97365463    -0.00014334407
    303000   1.0007301      0.0043501974   0.98961084     0            
    304000   0.98769626     0.0029625718   0.9735882     -0.0031336625 
    305000   1.0044113      0.004608596    0.99252108    -0.00073011283
    306000   0.98607311     0.0040785225   0.97577067     0.00065392422
    307000   1.0217777      0.004702       1.0031249     -0.0072997366 
    308000   0.98711365     0.0035426279   0.97222706    -0.0039186573 
    309000   0.91746761     0.0036026376   0.90727353     0            
    310000   1.0005017      0.0038749949   0.98261776    -0.0067672194 
    311000   0.99375051     0.0045104653   0.97713084    -0.0055779998 
    312000   1.0268574      0.0042955017   1.0111021     -0.0043457703 
    313000   0.99710384     0.0040373659   0.97899039    -0.0070345224 
    314000   0.93507972     0.0046633801   0.92235193    -0.0023380158 
    315000   1.076569       0.0037286319   1.0646071      0            
    316000   0.97262472     0.0045807057   0.96246571     0.00064793621
    317000   0.93690814     0.00437288     0.92666715     0.0001690976 
    318000   1.0502916      0.0060380787   1.0386217      0            
    319000   1.0682182      0.0036532496   1.0563491      0            
    320000   0.97395336     0.0034747991   0.96313166     0            
    321000   0.90650162     0.0038699733   0.89460086    -0.0018285166 
    322000   1.0220834      0.0044208968   1.0076161     -0.0031108816 
    323000   1.0580977      0.0045694201   1.0444376     -0.0019034228 
    324000   0.94470018     0.003789496    0.93070192    -0.0035015929 
    325000   0.97729721     0.0039344715   0.96569173    -0.00074662593
    326000   1.0833544      0.0035160869   1.0687817     -0.0025354439 
    327000   1.0373944      0.0043868745   1.0258678      0            
    328000   1.0204822      0.0037048346   1.0089712     -0.00017234139
    329000   0.99002462     0.0039433663   0.97871527    -0.00030907134
    330000   1.0724897      0.0035587003   1.0619093      0.0013361974 
    331000   1.0056914      0.0043027309   0.99377476    -0.00074231526
    332000   1.0564267      0.0041700471   1.0446887      0            
    333000   1.0180265      0.0043655302   1.0067151      0            
    334000   1.0002656      0.0040864412   0.9883657     -0.0007858658 
    335000   0.93725517     0.003883046    0.92684122     0            
    336000   1.0404481      0.0039801558   1.0292402      0.000352607  
    337000   1.040662       0.0049222009   1.029578       0.00047884432
    338000   1.0489243      0.0043046185   1.0380139      0.00074434426
    339000   1.0425997      0.0039587645   1.0292402     -0.0017751006 
    340000   1.0336891      0.0042578683   1.0222037      0            
    341000   0.98961268     0.0040125361   0.97861698     0            
    342000   0.94562189     0.0039143054   0.93317188    -0.0019430956 
    343000   1.0691982      0.0042325089   1.0573182      0            
    344000   1.1397774      0.0048597556   1.1271132      0            
    345000   0.93640688     0.0042514566   0.92600236     0            
    346000   1.0081214      0.0041719627   0.99721453     0.00029444917
    347000   1.090769       0.0039049972   1.0786917      4.2404539e-05
    348000   1.0081067      0.0040331348   0.9998855      0.0029799648 
    349000   1.0265822      0.0032058813   1.0151757      0            
    350000   0.91517532     0.0035726332   0.9050067      0            
    351000   0.96220785     0.0041402471   0.94849356    -0.0030230863 
    352000   1.0890597      0.0042344143   1.076959       0            
    353000   1.0034763      0.0043410117   0.99247598     0.00014939905
    354000   0.91998852     0.0033993672   0.90725548    -0.0025109449 
    355000   0.99454235     0.0041725724   0.98327459    -0.00021728068
    356000   1.0085943      0.0041460986   0.99423858    -0.0031491667 
    357000   0.99597128     0.0040936427   0.98490493     0            
    358000   0.94548327     0.0042794503   0.9349779      0            
    359000   1.0123973      0.0035458187   1.0012064      5.7947914e-05
    360000   0.98135775     0.0045543383   0.97045377     0            
    361000   1.0703762      0.0049274533   1.0584831      0            
    362000   1.0521907      0.0044769013   1.0407641      0.00026447542
    363000   1.005391       0.0035148322   0.99421999     0            
    364000   0.95760156     0.004636855    0.94377633    -0.0031852099 
    365000   0.99392338     0.00496472     0.98264548    -0.00023430608
    366000   1.024263       0.0045396843   1.0098109     -0.0030713458 
    367000   1.0152707      0.0043107457   1.0024201     -0.0015697767 
    368000   0.95174282     0.0041632298   0.9411679      0            
    369000   0.89108476     0.0023501721   0.88184735     0.00066353475
    370000   0.98013979     0.003897327    0.96924935     0            
    371000   1.0327225      0.0034852012   1.0186528     -0.0025949707 
    372000   1.0448331      0.0036239202   1.0332132     -1.0659891e-05
    373000   0.96934462     0.0044767243   0.95886792     0.00029379288
    374000   0.97635844     0.0027750946   0.96551001     0            
    375000   1.0349809      0.0046093717   1.0222855     -0.0011956455 
    376000   0.98933711     0.004165539    0.97834447     0            
    377000   0.94767653     0.0037752741   0.93413851    -0.0030082731 
    378000   1.0312647      0.0041012669   1.0200368      0.00023056451
    379000   0.9900388      0.003246741    0.97880444    -0.00023392742
    380000   0.95861209     0.0042571655   0.94249931    -0.0054615375 
    381000   1.0003809      0.0041106034   0.98644453    -0.0028209902 
    382000   0.98635638     0.0041433507   0.97539687     0            
    383000   1.0533749      0.0036510487   1.0419373      0.00026656752
    384000   1.0280392      0.0047375751   1.0135531     -0.0030634301 
    385000   0.98933235     0.0034998267   0.97850223     0.0001624613 
    386000   1.0519639      0.0040073319   1.0396586     -0.00061684355
    387000   0.94393397     0.0034432561   0.93053759    -0.0029082276 
    388000   0.98247627     0.0039108431   0.97155986     0            
    389000   1.0201864      0.0037059497   1.008851       0            
    390000   0.99421744     0.0038694366   0.98085392    -0.0023166686 
    391000   1.1098867      0.0049222345   1.0975546      0            
    392000   0.99627362     0.0040421558   0.98520392     0            
    393000   1.0367769      0.0032930816   1.0197603     -0.0054968652 
    394000   1.0803775      0.0031161296   1.0668956     -0.0014777391 
    395000   1.0217484      0.0051118897   1.0103957      0            
    396000   0.94629034     0.0034367023   0.93577601     0            
    397000   1.0041665      0.0049634123   0.99390189     0.00089280291
    398000   0.97282207     0.0039696784   0.96237299     0.00036005561
    399000   0.92081415     0.0040295951   0.91058289     0            
    400000   1.0765448      0.0054629517   1.0645832      0            
    401000   1.0603441      0.0043695735   1.0485625      0            
    402000   0.9476314      0.0034430572   0.93710216     0            
    403000   1.0491479      0.0041872165   1.0374907      0            
    404000   0.97426052     0.0042042102   0.9634354      0            
    405000   1.0451945      0.0045690226   1.036766       0.0031846995 
    406000   0.99051572     0.0051856069   0.97950999     0            
    407000   1.0137555      0.0045397885   0.99931928    -0.0031722913 
    408000   1.0198561      0.0047039993   1.0085244      0            
    409000   1.0580557      0.0051720912   1.0462995      0            
    410000   0.96993749     0.0047886016   0.95916041     0            
    411000   0.95092956     0.0041735362   0.94036368     0            
    412000   0.9959985      0.0029873122   0.98521301     0.00028116904
    413000   1.0376479      0.0045181942   1.0220818     -0.0040366416 
    414000   0.97120928     0.0039810829   0.95721633    -0.0032017319 
    415000   0.97875257     0.0040768758   0.96787754     0            
    416000   1.0556067      0.0047259593   1.0438778      0            
    417000   0.93604637     0.0046470179   0.92327209    -0.0023737682 
    418000   1.038515       0.0043262009   1.026976       0            
    419000   0.91074282     0.0044248191   0.90062346     0            
    420000   0.98523306     0.0045025465   0.97428603     0            
    421000   1.0747643      0.0041744698   1.0628225      0            
    422000   1.0173096      0.0040522747   1.0057034     -0.00030283327
    423000   0.9868174      0.0044779028   0.97585277     0            
    424000   0.99321687     0.0041433925   0.98218113     0            
    425000   1.0231611      0.0042422217   1.0117926      0            
    426000   0.9966585      0.0039709256   0.98558452     0            
    427000   0.93376984     0.0037852996   0.92381641     0.00042178696
    428000   1.0420799      0.0045199104   1.0294779     -0.0010233547 
    429000   0.91357195     0.0033018522   0.90064928    -0.0027718652 
    430000   0.98563206     0.0046032841   0.97468059     0            
    431000   0.95990732     0.0033142893   0.94924168     0            
    432000   1.0447618      0.0042668094   1.0331534      0            
    433000   0.90282642     0.0035122803   0.89279501     0            
    434000   0.95443866     0.0049996566   0.94383378     0            
    435000   1.045464       0.0038632447   1.0331176     -0.00073012322
    436000   0.9910955      0.0042415718   0.97818461    -0.0018987201 
    437000   1.0570665      0.0043462969   1.0446737     -0.00064760317
    438000   0.92321792     0.0039683526   0.9103539     -0.0026060381 
    439000   1.0310368      0.0037190565   1.0180764     -0.0015044672 
    440000   1.014778       0.0036873453   1.0034649     -3.7790469e-05
    441000   1.0062212      0.0049567622   0.99504098     0            
    442000   0.97789449     0.0042507444   0.967029       0            
    443000   1.0611577      0.0038129849   1.0493671      0            
    444000   0.98385446     0.0046970555   0.97063153    -0.0022912115 
    445000   1.0176876      0.0037749784   1.00638        0            
    446000   1.0136834      0.0037976619   1.0024202      0            
    447000   1.0714979      0.0040734053   1.0595923      0            
    448000   0.9434808      0.0027666382   0.93299768     0            
    449000   0.91436069     0.0035107152   0.90420112     0            
    450000   1.0012277      0.0037910419   0.99010294     0            
    451000   0.91911532     0.0036356203   0.90890293     0            
    452000   1.0244146      0.0041055463   1.0130322      0            
    453000   1.005445       0.0036215849   0.99280635    -0.0014670142 
    454000   1.0146763      0.0042167166   1.0032486     -0.00015350341
    455000   0.97504251     0.0035671161   0.96151817    -0.0026905385 
    456000   0.99096377     0.0047607382   0.97995306     0            
    457000   1.1165327      0.0040489114   1.1012343     -0.0028924445 
    458000   1.0235285      0.0048728623   1.0104676     -0.001688292  
    459000   0.98847538     0.0045660221   0.97829376     0.00080144703
    460000   0.95301825     0.0047633118   0.94242916     0            
    461000   1.0826696      0.0038088155   1.0706399      0            
    462000   0.95072993     0.0048775599   0.94016626     0            
    463000   0.96831581     0.0046807227   0.95755675     0            
    464000   0.90575527     0.0036898156   0.89569132     0            
    465000   0.98063091     0.004653606    0.96973501     0            
    466000   0.94355752     0.0039528365   0.93147037    -0.001603182  
    467000   0.9663755      0.0034960712   0.95567173     3.3736414e-05
    468000   0.99766171     0.0037804733   0.9877813      0.001204723  
    469000   1.0765664      0.0042716227   1.0629461     -0.001658414  
    470000   0.98032481     0.0044970368   0.96716059    -0.00227172   
    471000   0.96118364     0.0035124477   0.95050383     0            
    472000   1.0484104      0.0042669239   1.0367614      0            
    473000   1.061613       0.0038094711   1.0449209     -0.0048964114 
    474000   1.0500068      0.0043366144   1.0359802     -0.002359875  
    475000   1.0178853      0.0038808721   1.0065754      0            
    476000   0.98933089     0.003925808    0.97833832     0            
    477000   1.0737755      0.0035908329   1.0615421     -0.00030256306
    478000   0.92675633     0.0035747676   0.91645904     0            
    479000   0.99630667     0.0040350528   0.98508705    -0.00014953907
    480000   1.0144987      0.0038310593   1.0032265      0            
    481000   1.028504       0.005176504    1.0170761      0            
    482000   1.1400814      0.0055895772   1.1274138      0            
    483000   0.96898854     0.0040696921   0.958222       0            
    484000   0.99779411     0.0036666423   0.98670751     0            
    485000   0.99819974     0.0041408991   0.98710863     0            
    486000   0.97468715     0.0039170496   0.96385729     0            
    487000   0.97609357     0.0036496514   0.96524809     0            
    488000   0.96433688     0.0050405251   0.95754625     0.0039242228 
    489000   0.98630614     0.0033922296   0.97534718     0            
    490000   1.0573781      0.0037438435   1.0437574     -0.0018720369 
    491000   0.98394355     0.003224084    0.97496416     0.0019533075 
    492000   0.98401295     0.0038272248   0.97307947     0            
    493000   0.99618501     0.0042313686   0.9853624      0.00024611213
    494000   1.0130691      0.0047966809   0.99884762    -0.0029651382 
    495000   0.94207265     0.0034793215   0.93160517     0            
    496000   0.95577912     0.0033285607   0.94198546    -0.0031738977 
    497000   1.0176054      0.0049590806   1.0062987      0            
    498000   0.99926026     0.0032553372   0.98815737     0            
    499000   1.0531187      0.0041450976   1.0443407      0.0029233933 
    500000   0.98136736     0.0037855809   0.97046328     0            
    501000   1.072394       0.0047430875   1.0577409     -0.0027376131 
    502000   1.0358804      0.0040646855   1.0243706      0            
    503000   0.97471496     0.003161065    0.96659497     0.0027101777 
    504000   0.99757888     0.0046083936   0.98649467     0            
    505000   0.95080282     0.0039116713   0.94024934     1.099903e-05 
    506000   1.0047602      0.0047368862   0.99608595     0.0024897088 
    507000   1.0339773      0.0051475166   1.0256704      0.0031817573 
    508000   0.96995464     0.0043288971   0.95917736     0            
    509000   1.0250767      0.0037556331   1.0139581      0.00027114634
    510000   1.0307576      0.0044380203   1.0193047      0            
    511000   0.99253236     0.0040158503   0.98097566    -0.00052855394
    512000   1.0620301      0.0048398602   1.0488865     -0.0013432726 
    513000   1.0371004      0.0045285146   1.0256209      4.3837752e-05
    514000   1.0715864      0.0042307169   1.0588243     -0.00085554743
    515000   0.98913763     0.0034479665   0.97814629    -9.1768146e-07
    516000   1.0320375      0.0050522564   1.0205705      0            
    517000   1.0318811      0.0047641713   1.0198973     -0.00051848748
    518000   0.9698019      0.004318175    0.95875273    -0.00027359135
    519000   0.96615532     0.0041032126   0.95713214     0.0017118808 
    520000   1.0863237      0.0049939529   1.0723778     -0.0018756923 
    521000   0.93887452     0.0044744898   0.92927593     0.00083334213
    522000   0.92971817     0.0030103319   0.91587461    -0.0035133664 
    523000   1.0295502      0.0046991045   1.0165747     -0.0015359943 
    524000   1.0791664      0.0050092853   1.0647497     -0.0024259589 
    525000   0.97100839     0.0026205964   0.96085872     0.0006393092 
    526000   0.99220614     0.003364256    0.98118163     0            
    527000   1.0474834      0.0042069392   1.0347081     -0.001136617  
    528000   1.0183848      0.0047079083   1.0071866      0.00011720757
    529000   0.94766715     0.0042906083   0.93407596    -0.0030615543 
    530000   0.96943984     0.0031080732   0.95866829     0            
    531000   0.98996166     0.0036001716   0.97649437    -0.0024677083 
    532000   0.98384354     0.004371207    0.9720752     -0.00083674812
    533000   1.0195901      0.0042685964   1.0078048     -0.00045645213
    534000   0.9198341      0.0036845826   0.90961372     0            
    535000   1.0671589      0.0044544046   1.0534628     -0.0018388124 
    536000   0.98927626     0.0042999225   0.97642476    -0.0018595399 
    537000   1.0383534      0.0036463668   1.0268161      0            
    538000   1.0316877      0.0035172504   1.0202245      0            
    539000   0.96659411     0.0033397623   0.95585417     0            
    540000   1.0064612      0.0044388221   0.99658501     0.001306692  
    541000   1.0443455      0.0039479666   1.0327416      0            
    542000   1.0022715      0.0040059989   0.99125659     0.00012147694
    543000   1.0474382      0.0034923937   1.0327486     -0.0030514352 
    544000   1.0174462      0.0047158517   1.0061412      0            
    545000   0.99283134     0.0027907698   0.98179988     0            
    546000   0.98647442     0.0054592867   0.97551359     0            
    547000   1.0297624      0.0046202179   1.0183206      0            
    548000   1.0615707      0.0033143005   1.0497754      0            
    549000   1.0100418      0.0043498891   0.99881909     0            
    550000   1.1218116      0.0048543613   1.109347       0            
    551000   0.95343759     0.0034868191   0.94284384     0            
    552000   0.93462458     0.003884244    0.92423986     0            
    553000   1.0658267      0.0052761485   1.0539842      0            
    554000   0.9957318      0.0038144739   0.98466812     0            
    555000   1.0078995      0.0035076048   0.99906869     0.002368112  
    556000   1.0306235      0.0040273537   1.0191725      3.6855013e-07
    557000   1.0850938      0.0044397808   1.0730372      6.5127195e-08
    558000   0.96513586     0.0040891884   0.95441213     0            
    559000   1.0101192      0.0045285836   0.99889569     0            
    560000   1.045152       0.0038761272   1.0344911      0.00095190075
    561000   1.0377915      0.0038098284   1.0262604      0            
    562000   0.98575252     0.0044821138   0.97479971     0            
    563000   0.99969497     0.0041966015   0.98858725     0            
    564000   1.0670524      0.0042260283   1.0551963      0            
    565000   0.97641433     0.0039826236   0.96556528     0            
    566000   1.0516008      0.0043044673   1.0399163      0            
    567000   0.94231778     0.003112463    0.93184758     0            
    568000   0.99640488     0.003544411    0.98533371     0            
    569000   0.98600863     0.0043404411   0.97505297     0            
    570000   1.0159626      0.0041807949   1.0036631     -0.0010109564 
    571000   1.0223099      0.004539395    1.0078546     -0.0030963468 
    572000   1.0071942      0.0036739298   0.99600318     0            
    573000   1.0401039      0.0046669542   1.0285472      0            
    574000   1.019816       0.0041922405   1.0084847      0            
    575000   1.1012479      0.0038289453   1.0890118      0            
    576000   1.0051092      0.0033430872   0.99394132     0            
    577000   1.0425617      0.0033159577   1.0309112     -6.6432803e-05
    578000   0.9641363      0.002721503    0.95262363    -0.00080005046
    579000   0.93877897     0.0038868654   0.92834809     0            
    580000   0.85240639     0.0034152244   0.84294371     8.5031852e-06
    581000   0.99224877     0.0048601553   0.98122378     0            
    582000   1.086377       0.0038035797   1.0750177      0.00071157555
    583000   1.0656988      0.0056993211   1.0529048     -0.00095291489
    584000   0.9655236      0.0043669958   0.95067983    -0.0041157252 
    585000   0.8828639      0.0022085262   0.87335521     0.00030090566
    586000   1.0287807      0.0045933663   1.0173498      0            
    587000   1.0989046      0.0044973281   1.0866946      0            
    588000   1.022513       0.004079083    1.0111517      0            
    589000   1.1067928      0.0038354455   1.0944951      0            
    590000   1.0210019      0.0044755165   1.0096575      0            
    591000   1.0825639      0.0039832259   1.0705354      0            
    592000   0.85810647     0.003365538    0.84857195     0            
    593000   1.0409814      0.0042434402   1.0294149      0            
    594000   0.98323583     0.0043432438   0.97231099     0            
    595000   0.95391944     0.0035643717   0.94332033     0            
    596000   1.0296208      0.004213321    1.0181806      0            
    597000   1.0482922      0.0049792089   1.0366445      0            
    598000   1.0108183      0.0038340145   0.99958702     0            
    599000   0.97648222     0.0040192081   0.96563242     0            
    600000   1.1151067      0.004718251    1.1027166      0            
    601000   1.0014293      0.004785753    0.99030232     0            
    602000   1.0261023      0.0043083719   1.0147011      0            
    603000   0.97339098     0.0047621546   0.96257552     0            
    604000   0.92109009     0.0039956334   0.91085576     0            
    605000   0.98195159     0.0038667145   0.97095996    -8.1053924e-05
    606000   1.0097239      0.0050844881   0.99850475     0            
    607000   0.98544824     0.0038479553   0.97449881     0            
    608000   1.043802       0.0046809139   1.0290888     -0.0031154029 
    609000   0.95262039     0.0035449922   0.93952671    -0.0025090162 
    610000   0.98442199     0.0038973977   0.97386201     0.00037804154
    611000   0.9435323      0.0029870828   0.93304861     0            
    612000   1.0063706      0.004183801    0.99242686    -0.0027617922 
    613000   1.0010929      0.0045187658   0.98996966     0            
    614000   1.0260909      0.0044995075   1.0146899      0            
    615000   1.0241516      0.00446184     1.0117548     -0.0010173607 
    616000   1.0623908      0.0050972209   1.0505865      0            
    617000   0.91892494     0.0040492016   0.90871466     0            
    618000   0.99062841     0.0042167251   0.97962143     0            
    619000   1.0643018      0.0049563167   1.0661711      0.013694935  
    620000   0.98080043     0.0033172041   0.97010608     0.00020342916
    621000   0.94581523     0.0040808124   0.93530617     0            
    622000   0.8982278      0.0038824657   0.8885426      0.00029510687
    623000   0.9183292      0.0042115645   0.90669244    -0.0014331009 
    624000   1.0225465      0.0050788006   1.0111848      0            
    625000   0.99066711     0.003846226    0.9796597      0            
    626000   1.0165845      0.0040688599   1.005296       6.8718912e-06
    627000   1.0515375      0.005092664    1.0398537      0            
    628000   1.031936       0.0040831548   1.02047        0            
    629000   0.96872484     0.0042771311   0.95796123     0            
    630000   1.0425012      0.0044535913   1.0309178      0            
    631000   0.98076347     0.0041031482   0.9698661      0            
    632000   1.0119298      0.0049829996   0.99930919    -0.0013769428 
    633000   1.0294275      0.0039239381   1.0179895      0            
    634000   1.0408603      0.0034234877   1.0292952      0            
    635000   0.99557419     0.0039679465   0.98451225     0            
    636000   0.97227098     0.0047569587   0.96146797     0            
    637000   1.0384187      0.0043473742   1.0247696     -0.0021111236 
    638000   1.0092537      0.0041499114   0.9980398      0            
    639000   1.0021706      0.003795583    0.99103535     0            
    640000   0.96135035     0.0036165118   0.95066868     0            
    641000   1.0657542      0.004033044    1.0539125      0            
    642000   0.91217234     0.003665945    0.90203709     0            
    643000   0.98043718     0.004029345    0.96954343     0            
    644000   0.95287405     0.0039088361   0.94049878    -0.0017877819 
    645000   0.97096367     0.0042558933   0.9600496     -0.00012558397
    646000   0.97177674     0.0039142874   0.95817151    -0.0028077183 
    647000   1.011458       0.0040264688   0.99811754    -0.0021019964 
    648000   1.041387       0.0043771401   1.0257984     -0.0040176505 
    649000   0.98227894     0.0042456106   0.97102246    -0.00034226245
    650000   1.0160921      0.0047910861   1.0034778     -0.001324412  
    651000   0.91729792     0.0040462385   0.90710572     0            
    652000   1.0628466      0.0038582467   1.0512075      0.00017031839
    653000   1.0414061      0.0046565468   1.0298522      1.7249792e-05
    654000   1.0548347      0.0047608321   1.0431143      0            
    655000   1.0048554      0.0041437289   0.99319961    -0.00049071898
    656000   1.0110113      0.0040592862   0.99978311     5.298394e-06 
    657000   1.0192679      0.0044643877   1.0079427      0            
    658000   0.95977312     0.0036210493   0.95092696     0.0018179849 
    659000   1.0781212      0.0043457057   1.066405       0.00026294331
    660000   1.0625442      0.0044490488   1.0507381      0            
    661000   1.1105539      0.0045141793   1.0973353     -0.00087917866
    662000   1.0318886      0.0048438614   1.0204232      0            
    663000   1.0652214      0.0044352143   1.0533856      0            
    664000   0.90414199     0.0032834307   0.89409597     0            
    665000   0.99567852     0.0034341229   0.98461542     0            
    666000   1.0026646      0.0039377028   0.99152388     0            
    667000   0.97427308     0.0039352185   0.96344783     0            
    668000   0.98557527     0.0041350552   0.97462443     0            
    669000   1.1214191      0.0056408203   1.1089589      0            
    670000   1.0584718      0.0050477364   1.046711       0            
    671000   1.0005872      0.0036789344   0.98953356     6.3960023e-05
    672000   0.95304749     0.0032623605   0.94245808     0            
    673000   0.92903541     0.0040868876   0.91885021     0.00013740956
    674000   1.0274939      0.0050697764   1.0160773      0            
    675000   1.0452847      0.0044492623   1.0336705      0            
    676000   1.0182039      0.0041085048   1.0068905      0            
    677000   0.92167326     0.0039599094   0.91143245     0            
    678000   1.0183975      0.0034624766   1.0052836     -0.0017984279 
    679000   0.97167185     0.0038516893   0.95971573    -0.001159767  
    680000   0.988288       0.0038499864   0.97730758     5.5575347e-07
    681000   0.99675656     0.0037412991   0.9857122      3.07123e-05  
    682000   0.94838547     0.0031117212   0.93784786     0            
    683000   1.0331827      0.0035622298   1.0217029      0            
    684000   0.9325458      0.0041927894   0.92218418     0            
    685000   1.0445557      0.0040386301   1.0329495      0            
    686000   1.0630994      0.0042962767   1.0512872      0            
    687000   1.011147       0.0034282945   0.9977354     -0.0021766747 
    688000   1.0027455      0.0035533662   0.99160389     0            
    689000   1.047838       0.0047124141   1.0361954      0            
    690000   1.0422621      0.0050443281   1.0306814      0            
    691000   0.9566635      0.0037139765   0.94603391     0            
    692000   0.94339541     0.0035987646   0.93291324     0            
    693000   0.90300415     0.0041081049   0.89349479     0.00052401177
    694000   0.99595935     0.0027553479   0.98489314     0            
    695000   0.98600791     0.0035729118   0.97505226     0            
    696000   1.0650063      0.0040448145   1.0531729      0            
    697000   1.0169631      0.0037022366   1.0033843     -0.0022791526 
    698000   0.97061782     0.0042929725   0.95983318     0            
    699000   1.0842704      0.0043204347   1.072223       0            
    700000   0.99907096     0.0043077978   0.98797017     0            
    701000   1.0124427      0.0046546509   1.0011933      0            
    702000   1.0034721      0.0031914919   0.99232241     0            
    703000   1.0272312      0.0048279025   1.0158175      0            
    704000   1.0176716      0.00396572     1.0063642      0            
    705000   0.98595547     0.0041948576   0.97417524    -0.00082516301
    706000   1.002113       0.0043026346   0.99083642    -0.00014201563
    707000   1.057163       0.0043850739   1.0447217     -0.00069508343
    708000   1.0162588      0.0044704627   1.0053642      0.00039721073
    709000   1.0720095      0.0051122963   1.057252      -0.0028463148 
    710000   0.99751683     0.0038947974   0.98643331     0            
    711000   0.94710762     0.0035083824   0.9365842      0            
    712000   0.9660377      0.0042301213   0.95276809    -0.0025358641 
    713000   1.0256749      0.0037789099   1.0142785      0            
    714000   0.99946143     0.0039761819   0.98863603     0.00027973026
    715000   0.99446606     0.0038932634   0.98352761     0.00011116998
    716000   0.98544567     0.0044241331   0.97534875     0.00085247664
    717000   0.92704518     0.0039960455   0.91674468     0            
    718000   0.95669086     0.0043782129   0.94885758     0.002796616  
    719000   0.97280876     0.0044191797   0.96199977     0            
    720000   1.0566696      0.0041528426   1.0453702      0.00044142747
    721000   1.1083916      0.0043607789   1.0960762      0            
    722000   0.89200248     0.0039729282   0.88209134     0            
    723000   1.0165493      0.003753192    1.0052543      0            
    724000   0.93422022     0.0036165575   0.92384        0            
    725000   0.97000606     0.004579181    0.95715711    -0.0020711003 
    726000   1.0034767      0.0038020789   0.99232697     0            
    727000   1.0077627      0.0048155532   1.0035073      0.0069419999 
    728000   1.0090067      0.0048250964   0.99779547     0            
    729000   1.0477162      0.0043345584   1.0360749      0            
    730000   1.0323735      0.0041811958   1.021484       0.00058133627
    731000   1.0173531      0.0053136846   1.0060491      0            
    732000   0.89913071     0.0032212114   0.88914037     0            
    733000   1.0209596      0.0045288945   1.0096156      0            
    734000   0.95298813     0.0031348195   0.93976436    -0.0026350101 
    735000   1.0150352      0.0036864571   1.003757       0            
    736000   1.0813891      0.0042283369   1.0701101      0.0007364831 
    737000   1.0072743      0.0048816725   0.99296615    -0.0031161879 
    738000   0.94070334     0.0037005293   0.93025108     0            
    739000   1.0785391      0.0046131123   1.0665554      0            
    740000   0.98338259     0.0042196941   0.96959728    -0.0028588398 
    741000   0.99039288     0.0036101682   0.97785251    -0.0015360046 
    742000   0.97881939     0.0040958522   0.96794362     0            
    743000   1.0115164      0.0041234987   1.0002773      0            
    744000   0.90550704     0.0039126408   0.89544585     0            
    745000   0.97191412     0.0039258768   0.9592948     -0.0018202792 
    746000   1.0472166      0.0048527852   1.0354147     -0.0001661443 
    747000   0.93953167     0.0025443701   0.92909243     0            
    748000   0.85348755     0.0036812342   0.84086963    -0.0031347282 
    749000   1.0382447      0.0044165253   1.0267086      0            
    750000   1.0204894      0.0048471321   1.0091507      0            
    751000   1.0011862      0.0044841035   0.99349603     0.0034341125 
    752000   1.0653301      0.0046662286   1.0534931      0            
    753000   1.0594293      0.003969504    1.0476578      0            
    754000   0.97310754     0.0041227235   0.96229524     0            
    755000   0.94709554     0.003121285    0.93657226     0            
    756000   0.98462141     0.0043046891   0.97368117     0            
    757000   1.0591119      0.0040230477   1.0473439      0            
    758000   0.94333968     0.0040610446   0.93285812     0            
    759000   0.99453483     0.0031611803   0.98348444     0            
    760000   1.025589       0.0031181606   1.0141936      0            
    761000   1.0275525      0.0041054245   1.0161353      0            
    762000   0.9757722      0.0043116883   0.96493029     0            
    763000   1.0467534      0.0044564717   1.0351228      0            
    764000   0.94414346     0.0039593243   0.93365298     0            
    765000   0.97194822     0.0037743821   0.9611488      0            
    766000   1.027983       0.0063622946   1.016561       0            
    767000   0.95579319     0.0038467321   0.94468236    -0.00049091193
    768000   1.0359896      0.0044553964   1.0245076      2.8984263e-05
    769000   1.0380164      0.0046401095   1.0267121      0.00022924113
    770000   0.90442642     0.0038109394   0.89437724     0            
    771000   1.00192        0.0042852349   0.98856431    -0.0022232006 
    772000   0.98943108     0.0038726456   0.97598219    -0.0024552167 
    773000   1.0514947      0.0043053031   1.0374976     -0.0023137888 
    774000   1.0347268      0.0032576809   1.0232307      8.4324206e-07
    775000   1.1576531      0.0047018361   1.1428684     -0.0019219691 
    776000   0.96139269     0.0033383389   0.95105616     0.00034561382
    777000   0.97226615     0.0049573815   0.96146319     0            
    778000   0.99295578     0.0037527374   0.98192294     0            
    779000   0.99804251     0.0044710537   0.98695315     0            
    780000   1.0077486      0.0045097847   0.99655141     0            
    781000   0.96433931     0.0026446579   0.95362443     0            
    782000   1.0738887      0.0048324851   1.0619566      0            
    783000   0.92329328     0.0031516558   0.91303446     0            
    784000   0.96066594     0.0039557232   0.94999187     0            
    785000   0.99127125     0.0041072686   0.98025755     4.2937235e-07
    786000   0.99206095     0.0048783482   0.98103805     0            
    787000   0.98760772     0.0040039551   0.97717713     0.00054282643
    788000   1.0614648      0.0041380208   1.0496707      0            
    789000   1.0528769      0.0039076339   1.0385876     -0.0025906844 
    790000   1.1598219      0.0043347064   1.146935       0            
    791000   1.0388657      0.0045073952   1.0273228      0            
    792000   1.0446013      0.0041554461   1.0330361      4.1554677e-05
    793000   0.94821079     0.0026295242   0.93775649     8.1368949e-05
    794000   0.98391706     0.0039198276   0.97298657     1.9160971e-06
    795000   0.97644463     0.0033043007   0.97016086     0.0045656177 
    796000   1.0738009      0.0049175709   1.0618698      0            
    797000   0.99155233     0.0036938562   0.98053508     0            
    798000   1.0668083      0.0043848019   1.0549549      0            
    799000   1.0043618      0.0044070883   0.99320221     0            
    800000   1.0198508      0.0044641658   1.0085191      0            
    801000   0.98440881     0.0049224421   0.97347094     0            
    802000   1.0246413      0.0050508609   1.0132564      0            
    803000   0.9229736      0.0029184614   0.91271834     0            
    804000   0.98880038     0.0032569795   0.97781371     0            
    805000   1.1127186      0.0037798335   1.0984353     -0.0019198224 
    806000   1.026556       0.0050872466   1.0151498      0            
    807000   1.0357068      0.0047435235   1.0241196     -7.934104e-05 
    808000   1.0737451      0.0053194153   1.056745      -0.0050696174 
    809000   1.0833453      0.0051974209   1.0707863     -0.00052180365
    810000   1.0092899      0.0044301694   0.99807559     0            
    811000   0.96362892     0.0044163261   0.94975717    -0.0031647646 
    812000   0.9815683      0.0033408298   0.97066198     0            
    813000   1.0497209      0.0034359502   1.0380573      0            
    814000   0.96823066     0.0046362229   0.95593286    -0.0015396858 
    815000   1.0386618      0.0041589876   1.0336026      0.0064814708 
    816000   1.0779568      0.0045689548   1.0659795      0            
    817000   0.87932449     0.0030069209   0.86955422     0            
    818000   0.93044175     0.0030136629   0.92010351     0            
    819000   1.040185       0.0041050137   1.0286274      0            
    820000   1.0370254      0.0035714693   1.0255028      0            
    821000   0.96725069     0.0035845109   0.95342098    -0.0030824805 
    822000   0.99389849     0.0031277123   0.98274839    -0.00010678608
    823000   1.0493243      0.0041025717   1.0376651      0            
    824000   0.90039186     0.0042112025   0.88838408    -0.0020034246 
    825000   1.0495716      0.0041031052   1.0379097      0            
    826000   1.0294886      0.0045369653   1.0182423      0.00019249719
    827000   0.91374205     0.0039571741   0.90203237    -0.0015569875 
    828000   1.0037958      0.0036499259   0.98806711    -0.0045753672 
    829000   1.0178059      0.0041103546   1.006497       0            
    830000   0.96932558     0.0031090273   0.9586758      0.00012050866
    831000   0.92720342     0.0040147067   0.91628327    -0.00061788746
    832000   0.94760164     0.0039673899   0.93428005    -0.0027926769 
    833000   1.038419       0.0041524202   1.026881       0            
    834000   1.0429431      0.0047120224   1.0313548      0            
    835000   0.95673687     0.0035825522   0.94610646     0            
    836000   0.99123511     0.0039553475   0.98022139     0            
    837000   1.0261098      0.0036406415   1.0147086      0            
    838000   1.010072       0.0051450201   0.99884898     0            
    839000   1.0375673      0.0049468835   1.0257653     -0.00027352769
    840000   1.0201641      0.0041339795   1.0090899      0.00026094866
    841000   0.99533297     0.0049761031   0.98427372     0            
    842000   1.0271187      0.0048956448   1.0157062      0            
    843000   1.076375       0.0054794308   1.0644153      0            
    844000   0.9647684      0.0048968307   0.95404875     0            
    845000   0.9497088      0.0047013176   0.93597262    -0.0031838558 
    846000   1.0200869      0.0045477529   1.0095903      0.00083764255
    847000   0.95213252     0.003283279    0.94155327     0            
    848000   0.99310519     0.0048877736   0.98207069     0            
    849000   1.0122708      0.0045315828   1.0010614      3.8085427e-05
    850000   1.0381664      0.0037233397   1.0266312      0            
    851000   0.96617819     0.0040652848   0.95544287     0            
    852000   0.93236194     0.0042647428   0.92200236     0            
    853000   0.97296086     0.0037521988   0.96215019     0            
    854000   0.98917506     0.0042825565   0.97818422     0            
    855000   0.84231637     0.0038698441   0.8329573      0            
    856000   1.0409865      0.0044052789   1.02942        0            
    857000   1.011444       0.0041971655   1.0002058      0            
    858000   1.0298653      0.0034761984   1.0184223      0            
    859000   1.0183176      0.0043286511   1.0039707     -0.0030322038 
    860000   0.98230022     0.0041305769   0.97138577     0            
    861000   1.0026021      0.0042383611   0.99146204     0            
    862000   1.0177011      0.0044614037   1.0063933      0            
    863000   1.1320726      0.0036696002   1.119494       0            
    864000   1.0057549      0.0039958872   0.99594866     0.0013688449 
    865000   1.0223539      0.0041545958   1.0078675     -0.0031268521 
    866000   1.0210026      0.0034778684   1.0096582      0            
    867000   0.96984463     0.0032806444   0.95906858     0            
    868000   0.99344925     0.0040423352   0.98241093     0            
    869000   0.99636289     0.0044788918   0.98529219     0            
    870000   1.0090014      0.0051763485   0.9977903      0            
    871000   1.0649824      0.0051755905   1.0531492      0            
    872000   0.95053005     0.0041910277   0.9314159     -0.0085526983 
    873000   1.0416945      0.0045646505   1.0302955      0.00017532348
    874000   0.9954129      0.0035867647   0.98195084    -0.0024019199 
    875000   0.94961866     0.004068317    0.93906734     0            
    876000   0.99011366     0.003530102    0.97880412    -0.0003082778 
    877000   1.0680662      0.0039563395   1.0561636     -3.5214066e-05
    878000   0.99334626     0.0041271989   0.9830488      0.00073972823
    879000   0.98513826     0.004262642    0.97419228     0            
    880000   0.96829561     0.0029179594   0.95753677     0            
    881000   0.95144739     0.003812049    0.94087576     0            
    882000   0.97819256     0.0043872355   0.97025457     0.0029308166 
    883000   1.0081482      0.0045729085   0.99694652     0            
    884000   1.0405209      0.0041241907   1.0289596      0            
    885000   1.0586012      0.0048914175   1.046839       0            
    886000   0.97313293     0.0033886401   0.9627139      0.00039355851
    887000   1.0623491      0.0039195899   1.0505453      0            
    888000   0.95988101     0.0041013119   0.94921566     0            
    889000   1.0917089      0.0042838698   1.0742806     -0.0052981957 
    890000   0.92453824     0.0036116272   0.91370813    -0.00055745976
    891000   0.95954599     0.0037793207   0.94695961    -0.0019247552 
    892000   1.0465618      0.0039224227   1.0349334      0            
    893000   0.96622116     0.0045425944   0.95567381     0.00018844663
    894000   0.97749593     0.0044185059   0.96663487     0            
    895000   0.88895158     0.0040833236   0.87751101    -0.0015633298 
    896000   1.0705022      0.0048033479   1.0586077      0            
    897000   0.97717847     0.0028334917   0.96632093     0            
    898000   1.0067687      0.0052910086   0.99551827    -6.4100981e-05
    899000   0.84990432     0.0033894391   0.84046093     0            
    900000   1.0196342      0.0049837075   1.0083118      6.8486311e-06
    901000   0.99716965     0.0043494344   0.98515741    -0.00093257747
    902000   0.90848283     0.0033710521   0.89838011    -8.4650966e-06
    903000   0.99894541     0.004113665    0.98784602     0            
    904000   1.0100096      0.0035979423   0.99878729     0            
    905000   0.90139262     0.0037082401   0.89137715     0            
    906000   1.0179648      0.0043175159   1.0056982     -0.00095589968
    907000   1.01464        0.0041077526   1.0013569     -0.0020093172 
    908000   1.0478766      0.0043842602   1.0355463     -0.00068729933
    909000   0.97697472     0.0039145209   0.96611944     0            
    910000   1.0267964      0.0044981301   1.0153875      0            
    911000   1.0753024      0.0040419266   1.0607859     -0.0025686324 
    912000   1.1458318      0.0043795375   1.1299999     -0.003100448  
    913000   1.0255589      0.0038744937   1.0141669      3.0941177e-06
    914000   1.0701628      0.005709148    1.0565655     -0.0017066186 
    915000   1.0201523      0.003285615    1.0088173      0            
    916000   1.0388928      0.0039816937   1.0250111     -0.0023384226 
    917000   1.0185276      0.0042567645   1.0080045      0.00079387777
    918000   0.9018234      0.0030530311   0.89180314     0            
    919000   0.97397646     0.0031225549   0.9631545      0            
    920000   0.99302184     0.0052191929   0.98198826     0            
    921000   1.0036747      0.0033023037   0.99252277     0            
    922000   0.95639692     0.0038789943   0.94576948    -8.0795287e-07
    923000   0.96018642     0.0039769445   0.94729377    -0.0022239139 
    924000   0.94847806     0.0041772878   0.9378052     -0.00013421825
    925000   0.93139666     0.0039607355   0.92050258    -0.00054523003
    926000   0.94089357     0.0036680561   0.94232026     0.011881064  
    927000   0.98534891     0.0047993127   0.97440059     0            
    928000   0.99259023     0.0039447139   0.98156145     0            
    929000   1.0739259      0.0044836503   1.0619934      0            
    930000   0.97549457     0.0035992309   0.96465574     0            
    931000   0.94260025     0.0046338257   0.93012182    -0.0020050976 
    932000   1.1101913      0.0047275578   1.0956448     -0.0022110233 
    933000   1.0570553      0.0044547877   1.0453102      0            
    934000   1.0067492      0.0033538406   0.99556306     0            
    935000   0.97940514     0.0037401607   0.96566304    -0.0028598234 
    936000   1.0562668      0.0036491605   1.0445305      0            
    937000   1.0424653      0.0049715373   1.0308823      0            
    938000   1.0377221      0.0042406559   1.0261919      0            
    939000   1.0234455      0.0040412579   1.0120739      0            
    940000   0.97324429     0.0035740646   0.96243047     0            
    941000   0.997          0.0047630536   0.98592222     0            
    942000   1.0568823      0.0050838599   1.0445652     -0.00057401218
    943000   0.88059654     0.0044866461   0.87139721     0.00058507644
    944000   1.0146391      0.0040571665   1.001248      -0.002117341  
    945000   1.0332207      0.0044767288   1.0217405      0            
    946000   1.1109734      0.0044647434   1.0986292      0            
    947000   0.95513985     0.0038315007   0.94452719     0            
    948000   1.0515977      0.004781617    1.0399133      0            
    949000   1.0460694      0.0037458666   1.0344465      0            
    950000   1.0716268      0.0036299909   1.0600261      0.00030629189
    951000   0.96722199     0.003712221    0.95550483    -0.0009702531 
    952000   1.061826       0.0037891623   1.0500279      0            
    953000   1.0047396      0.0047768084   0.99219488    -0.0013809357 
    954000   1.0252159      0.004062086    1.013921       9.6378098e-05
    955000   1.0425695      0.0042226293   1.0309865      1.0371862e-06
    956000   0.94450342     0.0034561819   0.93102323    -0.00298571   
    957000   0.98440014     0.0041431348   0.96991523    -0.0035471284 
    958000   0.9669967      0.0035623484   0.95373112    -0.0025211636 
    959000   1.0148076      0.0043593952   1.0055426      0.0020106552 
    960000   1.0038383      0.0037708915   0.99268453     0            
    961000   1.0357225      0.0037846487   1.0242145      0            
    962000   1.0139519      0.0045276719   1.0026858      0            
    963000   1.0019835      0.0033926404   0.99085039     0            
    964000   1.036135       0.0041587472   1.0246224      0            
    965000   1.0347782      0.0037842181   1.0232807      0            
    966000   1.0582152      0.0041465546   1.0464573      0            
    967000   1.0098174      0.0037970165   0.99928843     0.0006911985 
    968000   0.97825776     0.0041494973   0.96754959     0.00016136607
    969000   1.0404135      0.0052905937   1.0288534      0            
    970000   1.1414971      0.0049997457   1.1288138      0            
    971000   1.048942       0.0043892952   1.0372881      1.0291363e-06
    972000   0.96606026     0.0048094833   0.95532625     0            
    973000   1.099506       0.004187913    1.0872893      0            
    974000   1.0193222      0.0041140512   1.0079964      0            
    975000   0.97514413     0.0046690471   0.96431448     5.2807498e-06
    976000   1.0713813      0.0039410825   1.059477       0            
    977000   0.9572985      0.0036523121   0.94121346    -0.0054483827 
    978000   0.97774451     0.0039934361   0.96660047    -0.00028020889
    979000   0.94871093     0.004166885    0.9381697      0            
    980000   0.97307354     0.0045206318   0.96226161     0            
    981000   0.87441849     0.0033826645   0.86470273     0            
    982000   1.0505695      0.0043110401   1.0584541      0.019557537  
    983000   1.0116477      0.0045772717   1.0004072      0            
    984000   1.0074552      0.0038329032   0.99628028     1.8991886e-05
    985000   1.0506987      0.0045007962   1.0390243      0            
    986000   1.0577224      0.0045488847   1.0459699      0            
    987000   1.0172295      0.0043680099   1.0059269      0            
    988000   0.98952193     0.0043441493   0.97852724     0            
    989000   1.0108863      0.003172314    0.99927045    -0.00038381039
    990000   1.0218733      0.0042946917   1.0105192      0            
    991000   0.89021486     0.0035803423   0.88032358     0            
    992000   0.98011418     0.0040256419   0.96922403     0            
    993000   1.0242798      0.0027964456   1.0128989      0            
    994000   1.0237479      0.003480728    1.012373       0            
    995000   1.0402453      0.0049236019   1.0317699      0.0030828588 
    996000   1.038669       0.0032066912   1.0271283      0            
    997000   1.0177865      0.0040849079   1.0064778      0            
    998000   1.0438438      0.0040162537   1.0322456      0            
    999000   1.0179353      0.0043270802   1.0066249      0            
   1000000   1.004903       0.0044799362   0.99373736     0            
Loop time of 16.7269 on 1 procs for 1000000 steps with 405 atoms

Performance: 51653456.382 tau/day, 59784.093 timesteps/s
99.2% CPU use with 1 MPI tasks x no OpenMP threads

MPI task timing breakdown:
Section |  min time  |  avg time  |  max time  |%varavg| %total
---------------------------------------------------------------
Pair    | 0.78138    | 0.78138    | 0.78138    |   0.0 |  4.67
Bond    | 0.041621   | 0.041621   | 0.041621   |   0.0 |  0.25
Neigh   | 3.1493     | 3.1493     | 3.1493     |   0.0 | 18.83
Comm    | 0.8329     | 0.8329     | 0.8329     |   0.0 |  4.98
Output  | 0.31506    | 0.31506    | 0.31506    |   0.0 |  1.88
Modify  | 10.29      | 10.29      | 10.29      |   0.0 | 61.52
Other   |            | 1.317      |            |       |  7.87

Nlocal:            405 ave         405 max         405 min
Histogram: 1 0 0 0 0 0 0 0 0 0
Nghost:             58 ave          58 max          58 min
Histogram: 1 0 0 0 0 0 0 0 0 0
Neighs:              1 ave           1 max           1 min
Histogram: 1 0 0 0 0 0 0 0 0 0

Total # of neighbors = 1
Ave neighs/atom = 0.0024691358
Ave special neighs/atom = 0
Neighbor list builds = 212476
Dangerous builds = 0
Total wall time: 0:00:16
