fix fLANG all langevin 1.0 1.0 1.0 100
neigh_modify exclude molecule/intra all
fix rigidNVE linked_vesicle rigid/nve molecule
  1 rigid bodies with 5 atoms
fix NVE synapsin nve 1.0 1.0 1.0

    ##======================================##
    ## Output
    ##======================================##

thermo 1000
thermo_style custom step temp press etotal epair
thermo_modify flush yes
timestep 0.01

    ##======================================##
    ## Equilibration before output
    ##======================================##


    ##======================================##
    ## Run with output
    ##======================================##

fix enforce_2d all enforce2d
dump 2 all custom 1000 Results_eps_attr7_eps_rep1_eps_rep_weak0_range2_attr_with_repFalse_n_synapsin600_n_vesicles1/Movie_2d_eps_attr7_eps_rep1_eps_rep_weak0_range2_attr_with_repFalse_n_synapsin600_n_vesicles1.xyz id type mol x y z
run 1000000
Generated 0 of 3 mixed pair_coeff terms from geometric mixing rule
Neighbor list info ...
  update every 1 steps, delay 1 steps, check yes
  max neighbors/atom: 2000, page size: 100000
  master list distance cutoff = 11.52462
  ghost atom cutoff = 11.52462
  binsize = 5.7623102, bins = 55 55 1
  1 neighbor lists, perpetual/occasional/extra = 1 0 0
  (1) pair cosine/squared, perpetual
      attributes: half, newton on
      pair build: half/bin/newton
      stencil: half/bin/2d
      bin: standard
Per MPI rank memory allocation (min/avg/max) = 8.538 | 8.538 | 8.538 Mbytes
   Step          Temp          Press          TotEng         E_pair    
         0   0.99605013    -0.012465183    0.98864149     0            
      1000   0.97995812     0.0063915727   0.96110702    -0.011562156  
      2000   1.0333613      0.0068101735   1.0045706     -0.02110454   
      3000   1.0731992      0.0067599207   1.0440904     -0.021126327  
      4000   0.95939414     0.0052557225   0.92018812    -0.032070033  
      5000   0.9940809      0.006528052    0.96741183    -0.019275073  
      6000   1.0248174      0.006981221    0.9845859     -0.032608934  
      7000   0.94647313     0.0056479269   0.90491426    -0.034518982  
      8000   1.010678       0.0069244841   0.9692358     -0.033924798  
      9000   0.96048567     0.0050568032   0.92011794    -0.033223623  
     10000   0.96984082     0.0057918007   0.92902626    -0.033600867  
     11000   1.0275362      0.0068778857   0.98730198    -0.032591396  
     12000   0.99841846     0.0059231527   0.96751544    -0.023476762  
     13000   1.0063777      0.0066187557   0.96532529    -0.033566925  
     14000   0.97461475     0.0059206364   0.93636479    -0.031000757  
     15000   0.99671601     0.0070386327   0.95537013    -0.033932292  
     16000   0.93525219     0.0058345271   0.90078298    -0.027512791  
     17000   1.0858897      0.0061209715   1.0471555     -0.030657346  
     18000   0.90619764     0.0052738723   0.871951      -0.02750633   
     19000   0.93184403     0.0071484457   0.89020327    -0.03470969   
     20000   1.0512859      0.0060700829   1.0188898     -0.024576568  
     21000   0.92937807     0.0059926625   0.88862961    -0.033835733  
     22000   0.95407635     0.0051444701   0.91734663    -0.029633288  
     23000   0.97825797     0.0057269582   0.94954765    -0.021434015  
     24000   0.93840417     0.0062091286   0.88841386    -0.043010445  
     25000   1.0465769      0.0065464301   0.99417593    -0.044616502  
     26000   0.95303605     0.0061296614   0.89358627    -0.052361079  
     27000   1.043644       0.0066366383   0.97096382    -0.064917514  
     28000   1.0288901      0.0066063341   0.95597877    -0.065258421  
     29000   1.0229428      0.0072118608   0.94897831    -0.066355862  
     30000   1.0023557      0.0070212781   0.93862704    -0.056273158  
     31000   1.0026799      0.0055757134   0.93572549    -0.059496465  
     32000   1.0752626      0.0056404953   1.0147732     -0.052491599  
     33000   0.9846856      0.0055690317   0.91480383    -0.062557663  
     34000   0.99761965     0.0053054564   0.93597725    -0.054222087  
     35000   1.0629867      0.0055993449   0.98844301    -0.066637213  
     36000   0.94531682     0.005687758    0.88070885    -0.057576685  
     37000   1.0005343      0.0063801939   0.93301603    -0.060076314  
     38000   1.0031865      0.0049140184   0.93479936    -0.060925389  
     39000   0.99908809     0.0068681017   0.932945      -0.058711856  
     40000   1.0392299      0.0072859556   0.96543821    -0.066061856  
     41000   1.0493865      0.0064658579   0.97764389    -0.063937227  
     42000   0.89903524     0.0060656812   0.83386246    -0.058485741  
     43000   0.96084313     0.0065174421   0.87887758    -0.074818783  
     44000   1.0461502      0.0054508283   0.96204055    -0.076328415  
     45000   1.0805068      0.0064778627   0.99723954    -0.075230429  
     46000   0.95243495     0.0050246255   0.87235901    -0.072991707  
     47000   0.97342363     0.0057596807   0.90374844    -0.062434843  
     48000   0.98953089     0.005673163    0.90573798    -0.076432756  
     49000   1.0266925      0.0064320013   0.93533234    -0.083723635  
     50000   0.94208222     0.0056484581   0.85200762    -0.083067373  
     51000   1.0160103      0.0065088068   0.93869492    -0.069758233  
     52000   0.92920483     0.0054939791   0.84002872    -0.08226467   
     53000   1.0227173      0.0057028292   0.92810055    -0.087009792  
     54000   1.020591       0.0077218339   0.92923516    -0.083764677  
     55000   1.0126925      0.0058842623   0.91694007    -0.088219993  
     56000   0.94488376     0.0064427539   0.83760819    -0.10024751   
     57000   1.0252146      0.0055934745   0.92368337    -0.093905718  
     58000   0.93147484     0.0059768539   0.82848044    -0.096066073  
     59000   1.0253571      0.0057436684   0.92721883    -0.090511692  
     60000   0.98247776     0.0059292574   0.87826428    -0.096905793  
     61000   0.98625915     0.0065265292   0.88405261    -0.094870721  
     62000   0.98070158     0.0069931829   0.87944108    -0.093966022  
     63000   0.9685531      0.0062878869   0.86211085    -0.099238134  
     64000   1.0409497      0.0058885846   0.93686118    -0.096345961  
     65000   1.0249717      0.0058630521   0.91989494    -0.097452991  
     66000   0.95244131     0.0067457125   0.84480191    -0.10055512   
     67000   1.0347383      0.0058703528   0.93136118    -0.095680702  
     68000   0.95367963     0.0047733964   0.83706311    -0.10952303   
     69000   0.97301763     0.0053752726   0.85172907    -0.11405124   
     70000   1.0047566      0.0058210097   0.87019927    -0.12708395   
     71000   0.9920552      0.0055728526   0.86354348    -0.1211328    
     72000   1.0382137      0.0062596486   0.91382595    -0.11666553   
     73000   1.0454124      0.0061868486   0.92720412    -0.11043247   
     74000   0.987133       0.006860282    0.85283566    -0.12695503   
     75000   0.96631821     0.0063952912   0.84439583    -0.11473488   
     76000   1.0036206      0.0071396939   0.88920647    -0.10694921   
     77000   0.94280136     0.0055875947   0.82465675    -0.11113204   
     78000   1.0045691      0.005804522    0.884849      -0.1122481    
     79000   0.97369149     0.0064328522   0.84977726    -0.1166719    
     80000   1.03543        0.0068242121   0.89932476    -0.12840367   
     81000   0.97711933     0.0062185952   0.8521398     -0.1177117    
     82000   0.97438848     0.0062882393   0.85615577    -0.11098519   
     83000   0.97651729     0.005135733    0.84257396    -0.12667998   
     84000   1.0559146      0.005714608    0.92561363    -0.12244709   
     85000   0.94202646     0.0066811221   0.80916746    -0.12585219   
     86000   0.91241167     0.0060553958   0.79170098    -0.11392416   
     87000   0.93296519     0.0061550605   0.79461808    -0.1314077    
     88000   1.015594       0.0063854497   0.87523752    -0.13280246   
     89000   0.99748057     0.0060900365   0.85338608    -0.13667522   
     90000   0.98765232     0.0053616873   0.83938493    -0.14092122   
     91000   1.0525492      0.0068351855   0.91616592    -0.12855436   
     92000   1.0395587      0.007436413    0.91385637    -0.11797012   
     93000   0.98082755     0.0049730514   0.84971401    -0.12381813   
     94000   1.0029578      0.0063091681   0.86573496    -0.12976285   
     95000   1.035561       0.0069811606   0.88808104    -0.1397774    
     96000   0.98886779     0.0055645535   0.84489996    -0.13661262   
     97000   1.0273894      0.0061540747   0.86933427    -0.15041343   
     98000   1.0087532      0.0063876533   0.85125685    -0.14999324   
     99000   1.0156532      0.0068174587   0.8517321     -0.15636664   
    100000   1.0038758      0.0066452094   0.82154499    -0.17486399   
    101000   1.0318268      0.0064258418   0.85611394    -0.1680381    
    102000   1.0315628      0.0070335898   0.87664265    -0.14724735   
    103000   0.98268305     0.0059262564   0.82136925    -0.15400459   
    104000   0.97938755     0.0061579354   0.82074851    -0.15135435   
    105000   1.0166413      0.0062130711   0.8573682     -0.15171128   
    106000   1.0290176      0.0057210036   0.86695065    -0.15441315   
    107000   0.92311834     0.0052051406   0.76153531    -0.15471686   
    108000   0.94934135     0.0059230696   0.80317107    -0.13910906   
    109000   0.96698432     0.0060046332   0.80906359    -0.15072829   
    110000   1.0317477      0.0068368634   0.85316111    -0.17091239   
    111000   0.99201009     0.0052366312   0.8075071     -0.1771244    
    112000   0.98797626     0.004987688    0.80330198    -0.1773257    
    113000   1.000944       0.0064227541   0.81934009    -0.17415883   
    114000   0.97970469     0.0064436859   0.79857314    -0.1738445    
    115000   1.0372052      0.0071464932   0.85723364    -0.17225676   
    116000   1.0209831      0.0067391437   0.83240912    -0.18097984   
    117000   1.0233272      0.0064214797   0.84914272    -0.16657295   
    118000   0.99472563     0.006904473    0.80182662    -0.18550022   
    119000   1.0005072      0.0052608196   0.7941089     -0.19895651   
    120000   1.0239357      0.0055542935   0.81425028    -0.20206937   
    121000   1.0152957      0.0051559897   0.80871155    -0.19903237   
    122000   1.0578682      0.0068615249   0.84150583    -0.20849395   
    123000   1.0275235      0.0066172393   0.82135084    -0.1985299    
    124000   0.96852949     0.0056176074   0.76864074    -0.19268481   
    125000   0.96870839     0.0059426524   0.78002337    -0.18147975   
    126000   1.0512755      0.0068355728   0.85217214    -0.19128395   
    127000   0.99876164     0.0056907786   0.80691383    -0.184419     
    128000   0.97221625     0.0063499559   0.774784      -0.19020089   
    129000   0.97798217     0.0063589989   0.77275473    -0.19795319   
    130000   0.99268457     0.0055936818   0.77247148    -0.21282949   
    131000   1.0752297      0.0067170593   0.86716262    -0.2000695    
    132000   0.96876087     0.0055871991   0.76970627    -0.19184895   
    133000   0.99681408     0.0057175509   0.80055204    -0.18884772   
    134000   1.0030283      0.0060416829   0.79341508    -0.20215267   
    135000   1.1074527      0.0058351021   0.89311634    -0.20609908   
    136000   0.9873967      0.0070816328   0.78993798    -0.19011446   
    137000   1.0265076      0.0063434312   0.80642858    -0.21244381   
    138000   0.97096604     0.0053201264   0.77536072    -0.18838326   
    139000   0.9892538      0.0067954719   0.77656546    -0.20533025   
    140000   1.0229317      0.0069847971   0.81306982    -0.2022533    
    141000   0.97781515     0.0064369812   0.77252614    -0.19801601   
    142000   0.99878827     0.0051515343   0.78008036    -0.2112789    
    143000   1.0786971      0.0068384349   0.86393722    -0.20673653   
    144000   1.013197       0.0052147966   0.7825581     -0.22310273   
    145000   0.97548971     0.0060916078   0.75943573    -0.20879828   
    146000   0.95389039     0.0054399147   0.73177578    -0.21501956   
    147000   0.98209683     0.0064280805   0.75145271    -0.22333927   
    148000   0.94761489     0.0056880154   0.72077634    -0.21979017   
    149000   1.0213695      0.0060441462   0.78389346    -0.22987909   
    150000   0.94606603     0.0049271633   0.72200037    -0.21702881   
    151000   1.0228045      0.0068893701   0.80744827    -0.20774858   
    152000   1.0853752      0.0053084893   0.86622942    -0.21107276   
    153000   0.96104203     0.0059183233   0.74473882    -0.20915496   
    154000   1.0144249      0.0055635175   0.78826169    -0.21861788   
    155000   0.90689039     0.0057711494   0.66943543    -0.23070949   
    156000   1.0326159      0.0055713385   0.78950387    -0.23543142   
    157000   1.0048154      0.0054843172   0.77442626    -0.22291528   
    158000   1.0495319      0.0067540039   0.81294979    -0.22877566   
    159000   0.91380316     0.0057258659   0.67026579    -0.23674049   
    160000   1.0277206      0.0054183874   0.77904592    -0.2410305    
    161000   1.0113482      0.0065761015   0.77546486    -0.22836092   
    162000   0.95785893     0.0060237349   0.7259882     -0.22474616   
    163000   0.93586142     0.0050215385   0.68829668    -0.24060379   
    164000   1.0277497      0.0072584891   0.78213043    -0.23797488   
    165000   0.96369903     0.0058710279   0.71179396    -0.24473706   
    166000   0.96985473     0.0054466559   0.72775419    -0.23488675   
    167000   0.97907979     0.005146203    0.73669742    -0.23509996   
    168000   1.0804637      0.0072591452   0.83611111    -0.2363161    
    169000   0.98064389     0.0061162741   0.73537898    -0.23797087   
    170000   0.97426387     0.006029657    0.72732481    -0.23969247   
    171000   0.97288742     0.0062957026   0.73182943    -0.23382164   
    172000   1.0482552      0.0067279291   0.81184755    -0.22861068   
    173000   1.0005858      0.0050122157   0.74941062    -0.24373284   
    174000   1.000545       0.0051998492   0.75319049    -0.23991239   
    175000   0.92718557     0.0055491536   0.66749261    -0.25279654   
    176000   1.0149851      0.0067832039   0.7519429     -0.2554927    
    177000   1.0402812      0.0077978288   0.79228277    -0.24026085   
    178000   0.99062534     0.0049866952   0.73458801    -0.24866904   
    179000   1.0477969      0.0056754201   0.79311824    -0.24688512   
    180000   0.98089863     0.004694603    0.7402036     -0.23339909   
    181000   1.0621503      0.0063221286   0.79782503    -0.256425     
    182000   1.0731639      0.007240685    0.81456942    -0.25061226   
    183000   1.0151462      0.0075536418   0.75822213    -0.24937338   
    184000   1.0381908      0.0054014206   0.76273338    -0.26773532   
    185000   1.0375889      0.0063208784   0.76363274    -0.26623858   
    186000   0.96996441     0.0063341272   0.68089086    -0.28185894   
    187000   1.0033481      0.0058458821   0.72930594    -0.26657924   
    188000   1.0653539      0.0066402002   0.78813391    -0.26929589   
    189000   1.0284923      0.0063093919   0.74600098    -0.27484133   
    190000   1.0557949      0.0067829314   0.78475249    -0.26318938   
    191000   1.0124078      0.006864816    0.72051823    -0.28435928   
    192000   1.0536396      0.0063917773   0.78108695    -0.26471564   
    193000   1.0239777      0.0067187489   0.76165819    -0.25470317   
    194000   1.003048       0.0054312261   0.74695446    -0.24863283   
    195000   0.99826857     0.004940034    0.71496584    -0.27587759   
    196000   1.0013654      0.0054339305   0.70972541    -0.28419185   
    197000   1.0340517      0.0059267436   0.72660075    -0.29975971   
    198000   1.0623624      0.0061761458   0.77193495    -0.28252555   
    199000   1.0590713      0.0073880269   0.76207079    -0.28912315   
    200000   0.94393985     0.0067966615   0.69031284    -0.24660597   
    201000   1.015433       0.005946536    0.72033052    -0.28754964   
    202000   0.99443901     0.0061656246   0.72888569    -0.25815666   
    203000   1.0342972      0.0068925937   0.76083223    -0.26577184   
    204000   1.0164786      0.0062435223   0.74958468    -0.25933334   
    205000   1.0278895      0.0064421148   0.74662615    -0.27361787   
    206000   0.93576551     0.00755008     0.63996031    -0.28884496   
    207000   0.99580158     0.0058207987   0.70176242    -0.28663238   
    208000   0.98820525     0.0055657832   0.70478877    -0.27606619   
    209000   1.0351586      0.005286858    0.74796824    -0.27949087   
    210000   0.99763141     0.0056916076   0.73547088    -0.25474013   
    211000   0.9812312      0.0052442588   0.67099282    -0.30293997   
    212000   0.99436123     0.0066844708   0.71962448    -0.26734068   
    213000   1.0032353      0.005806317    0.69995237    -0.29582085   
    214000   1.0331561      0.0058511322   0.75475716    -0.2707143    
    215000   1.0322407      0.0057020632   0.74519966    -0.27936321   
    216000   1.0150125      0.0059854319   0.73031147    -0.27715138   
    217000   0.98096416     0.0045701641   0.67474703    -0.2989207    
    218000   1.0364141      0.0055337289   0.75754735    -0.2711579    
    219000   1.0557937      0.0063650483   0.7743556     -0.27358508   
    220000   0.91557457     0.0050754319   0.60548703    -0.30327749   
    221000   1.0071784      0.0063865655   0.70440684    -0.29528012   
    222000   1.0009971      0.0057682924   0.71775022    -0.27580146   
    223000   0.9801015      0.0042601537   0.66891661    -0.30389488   
    224000   0.992198       0.0057878192   0.69480325    -0.29001476   
    225000   1.0340073      0.0053754275   0.71062634    -0.31568998   
    226000   1.0317177      0.0063452209   0.73313207    -0.29091165   
    227000   0.94765797     0.0066024692   0.6519831     -0.28862617   
    228000   1.0008349      0.0065745955   0.71235274    -0.28103791   
    229000   0.96200671     0.0049972755   0.6936991     -0.26115219   
    230000   1.0418151      0.0066929578   0.75633253    -0.27773351   
    231000   0.99145337     0.0056006729   0.70041443    -0.28366449   
    232000   0.99485423     0.0048498355   0.67986447    -0.30759002   
    233000   1.0567472      0.0067531474   0.73898957    -0.30989752   
    234000   1.0402492      0.0056478376   0.71878252    -0.31372931   
    235000   1.0377234      0.005122648    0.70513026    -0.32487457   
    236000   1.0256823      0.0057616938   0.7066057     -0.31144761   
    237000   0.99041224     0.0048537846   0.6692071     -0.31383844   
    238000   0.99065242     0.0049130436   0.68735612    -0.29592781   
    239000   1.0009523      0.0059028656   0.69180863    -0.30169852   
    240000   0.98922061     0.0049697539   0.67295848    -0.30890429   
    241000   0.97451553     0.005684734    0.65842651    -0.30884055   
    242000   0.92693814     0.0054289178   0.59848426    -0.3215593    
    243000   1.0142856      0.0059982829   0.72529668    -0.28144466   
    244000   0.97332198     0.0057645921   0.67811612    -0.28796628   
    245000   0.94372301     0.0058623737   0.60105115    -0.33565244   
    246000   1.0159154      0.0052058896   0.69063107    -0.31772791   
    247000   0.99308244     0.0052531331   0.66355964    -0.32213623   
    248000   0.98151129     0.005829761    0.65990179    -0.31430901   
    249000   0.95488353     0.0065675551   0.63373181    -0.31404928   
    250000   1.0609028      0.0070027363   0.75498245    -0.29802934   
    251000   1.0163011      0.006562469    0.70830143    -0.30044042   
    252000   0.96493625     0.0059092017   0.66174154    -0.2960175    
    253000   1.014324       0.0058339494   0.7070534     -0.29972609   
    254000   0.99398806     0.0065315029   0.69848727    -0.28810749   
    255000   1.0686237      0.0059758983   0.77117394    -0.28950134   
    256000   1.0047273      0.0054063422   0.70254364    -0.29471048   
    257000   0.97373393     0.0054771496   0.70173986    -0.26475143   
    258000   1.0463735      0.006770075    0.75066923    -0.28792133   
    259000   1.041629       0.0057489436   0.76285616    -0.27102523   
    260000   0.91949324     0.0063134211   0.64165048    -0.27100355   
    261000   1.0342175      0.0069937437   0.76627832    -0.2602467    
    262000   0.94881476     0.005914833    0.66149503    -0.28026243   
    263000   1.0241319      0.0054123289   0.73669633    -0.27981809   
    264000   0.94633153     0.0053984348   0.66771597    -0.27157673   
    265000   0.99203979     0.0056217517   0.6914812     -0.29317977   
    266000   1.0137037      0.0048803124   0.72167895    -0.28448481   
    267000   0.98319613     0.0066849532   0.69308622    -0.28279688   
    268000   1.0125208      0.0053006382   0.71749548    -0.28749415   
    269000   1.0360403      0.0066523754   0.74483461    -0.28349962   
    270000   1.083766       0.0060605752   0.78449831    -0.29120663   
    271000   1.0263273      0.0065961776   0.74434609    -0.27434733   
    272000   0.9942328      0.0059038945   0.6865729     -0.30026478   
    273000   1.0237642      0.0064445994   0.73253424    -0.2836152    
    274000   1.0010917      0.0067948351   0.70162918    -0.29201637   
    275000   0.95927268     0.0042633748   0.65100745    -0.30113014   
    276000   1.0117228      0.0058468176   0.69753007    -0.30666753   
    277000   1.0439515      0.0056301162   0.74496996    -0.29121662   
    278000   0.97930961     0.0058992419   0.68709002    -0.28493547   
    279000   0.95757693     0.0063016726   0.66169496    -0.2887595    
    280000   1.1036775      0.0058253931   0.81688473    -0.27858357   
    281000   1.031488       0.005359181    0.72529026    -0.29852553   
    282000   1.0603356      0.0063282783   0.75861507    -0.2938337    
    283000   0.97639074     0.0059784296   0.67948954    -0.28963879   
    284000   0.95534073     0.0049391944   0.63648305    -0.31175184   
    285000   0.97580478     0.0051294808   0.68672756    -0.28181916   
    286000   0.92586675     0.0054812043   0.61667546    -0.30230468   
    287000   1.016381       0.0055043874   0.71166692    -0.29715427   
    288000   0.93764183     0.0054247996   0.65008422    -0.28058341   
    289000   1.0366071      0.0051791502   0.72959392    -0.29930289   
    290000   1.0589657      0.0063608395   0.75742709    -0.29366196   
    291000   1.0005541      0.0048758119   0.71023547    -0.28287648   
    292000   1.0655046      0.0064696711   0.74898997    -0.30858939   
    293000   0.96287369     0.0067912953   0.65991879    -0.29579303   
    294000   1.0006955      0.0058911132   0.70510105    -0.28815124   
    295000   0.9837872      0.005960925    0.68862913    -0.28784065   
    296000   0.97094128     0.0059000304   0.65644641    -0.30727299   
    297000   0.97455203     0.0053558337   0.67508965    -0.29221364   
    298000   1.0680751      0.0053967098   0.75537294    -0.30475783   
    299000   1.0660837      0.0050647058   0.78387977    -0.2742744    
    300000   0.96971396     0.0051334732   0.65067704    -0.31182417   
    301000   1.028715       0.0066317208   0.7282442     -0.29281924   
    302000   1.0481682      0.0062472058   0.7487769     -0.29159503   
    303000   0.91645544     0.0047861609   0.61496989    -0.29466894   
    304000   0.96553805     0.003350409    0.66020596    -0.2981504    
    305000   0.95542219     0.0046297882   0.67113086    -0.27718487   
    306000   0.93694276     0.0046772488   0.61646572    -0.31350804   
    307000   0.99075188     0.0065437231   0.68087879    -0.30250387   
    308000   0.98411015     0.0060127135   0.66136461    -0.31542572   
    309000   0.98573668     0.0046515761   0.69359211    -0.28481264   
    310000   0.96651123     0.0058665887   0.65682942    -0.30249289   
    311000   0.96843758     0.0052643526   0.65375043    -0.30748389   
    312000   0.99787391     0.0068331646   0.66243531    -0.3280164    
    313000   0.98071134     0.0040138968   0.63778485    -0.33563194   
    314000   1.1359722      0.0070630311   0.79178801    -0.33573484   
    315000   1.0292516      0.0065488143   0.698651      -0.32294504   
    316000   1.0330411      0.0057189363   0.70366759    -0.32168973   
    317000   1.007733       0.0052410729   0.66962108    -0.33061635   
    318000   0.97572435     0.0064280798   0.63016854    -0.33829836   
    319000   0.93382878     0.0067724689   0.63247505    -0.2944079    
    320000   0.96621768     0.0057510718   0.65446452    -0.30456642   
    321000   1.0878713      0.0066927552   0.79409658    -0.28568308   
    322000   0.9760189      0.0062702835   0.67858191    -0.29017734   
    323000   0.99567639     0.0059650061   0.7022448     -0.28602574   
    324000   1.013757       0.0063724599   0.72866532    -0.27755136   
    325000   0.96972901     0.0062847741   0.66367082    -0.29884532   
    326000   1.0599259      0.0061764448   0.76816913    -0.28387305   
    327000   0.96538993     0.0061049071   0.65156173    -0.30664761   
    328000   1.0191528      0.0059378955   0.69870975    -0.31286259   
    329000   1.0148136      0.0047154541   0.72618317    -0.28108223   
    330000   1.0181746      0.0054043504   0.68960647    -0.32099493   
    331000   0.99820288     0.0054607055   0.70198863    -0.28878959   
    332000   0.99252858     0.0052830272   0.71460398    -0.27054215   
    333000   1.0606104      0.0065034639   0.75067986    -0.30204171   
    334000   1.0526581      0.0056186376   0.75541668    -0.28941177   
    335000   0.97950686     0.0058318251   0.67095704    -0.30126423   
    336000   0.93213963     0.0056590859   0.59925691    -0.32594945   
    337000   0.93162888     0.0056640075   0.59770403    -0.32699537   
    338000   0.9906785      0.0058756972   0.65574396    -0.32756586   
    339000   1.034154       0.0063714305   0.68439617    -0.34206581   
    340000   1.0271018      0.0052858512   0.71576373    -0.3036985    
    341000   1.0543624      0.0057065984   0.72796982    -0.31855017   
    342000   0.96341705     0.0064250658   0.65157791    -0.30467323   
    343000   0.98006374     0.0051292481   0.64250027    -0.33027374   
    344000   1.0135225      0.0062180314   0.68007332    -0.32591058   
    345000   1.0074297      0.0058285583   0.69753776    -0.30239867   
    346000   1.1060229      0.0065357229   0.78429282    -0.31350346   
    347000   0.98500849     0.0051908302   0.6585978     -0.31908418   
    348000   0.99517622     0.0055071607   0.70562098    -0.28215311   
    349000   0.99590464     0.0061077723   0.67435502    -0.31414206   
    350000   1.0208742      0.0057704151   0.72169149    -0.2915894    
    351000   0.99016238     0.0050390405   0.67470207    -0.30809546   
    352000   0.96685484     0.0057973428   0.65925533    -0.30040803   
    353000   0.9700536      0.0051094086   0.67358972    -0.28924861   
    354000   1.0753014      0.0060640114   0.75556501    -0.31173829   
    355000   1.0212255      0.0060830113   0.69235847    -0.32127116   
    356000   1.0398215      0.0065434253   0.70025642    -0.33183091   
    357000   0.96585975     0.0060919351   0.65500527    -0.3036704    
    358000   0.99170869     0.005853512    0.658525      -0.32580735   
    359000   0.95851154     0.005233156    0.64016609    -0.31121603   
    360000   1.0064254      0.0065861398   0.68398004    -0.31495954   
    361000   0.95052976     0.0067967461   0.64221364    -0.30124607   
    362000   0.96859943     0.005522138    0.65442292    -0.30697205   
    363000   0.97000666     0.0061652591   0.65738795    -0.30540379   
    364000   0.94614698     0.0051302916   0.63825517    -0.30085436   
    365000   1.0769446      0.0056655789   0.75277133    -0.31616293   
    366000   1.0085953      0.0055029492   0.68245794    -0.3186354    
    367000   1.017143       0.0063077425   0.69085567    -0.31872184   
    368000   0.96895815     0.0060884998   0.628073      -0.33367802   
    369000   1.0314911      0.005558283    0.69658504    -0.32723377   
    370000   1.0501502      0.0054120454   0.70866387    -0.33367528   
    371000   1.0293004      0.0062336226   0.69226208    -0.32938234   
    372000   0.96776461     0.0050525617   0.63403766    -0.3265287    
    373000   0.96705172     0.0051376316   0.62465849    -0.33520028   
    374000   0.91205392     0.0056864388   0.56622002    -0.33905002   
    375000   0.97282308     0.0064309199   0.63674257    -0.32884464   
    376000   0.991527       0.0057263709   0.6550405     -0.3291115    
    377000   1.0043246      0.0058848845   0.66362698    -0.33322747   
    378000   1.0211703      0.0056335703   0.66124431    -0.3523305    
    379000   0.96208461     0.0043672956   0.61167915    -0.34324946   
    380000   1.0519225      0.0068112667   0.67962776    -0.36447053   
    381000   0.97806716     0.0052875664   0.62724605    -0.34354623   
    382000   1.0584143      0.0070015538   0.68463979    -0.36590205   
    383000   0.93883074     0.0052875935   0.58609869    -0.345749     
    384000   0.98832149     0.0065088531   0.650073      -0.33089734   
    385000   1.0503622      0.0065540476   0.72870818    -0.3138414    
    386000   1.0112614      0.0051687203   0.67433685    -0.32940281   
    387000   0.96071661     0.0062927944   0.61397761    -0.33959318   
    388000   1.0318986      0.0062546363   0.71117892    -0.31304437   
    389000   1.0945083      0.007792613    0.75387493    -0.33249244   
    390000   0.94860335     0.0062143427   0.62758304    -0.31396458   
    391000   0.97994258     0.0053409434   0.66071531    -0.31193844   
    392000   1.0062583      0.0059825586   0.67896741    -0.31980636   
    393000   1.0592021      0.0076744804   0.72872025    -0.32260347   
    394000   0.96922806     0.005474527    0.61499968    -0.34701925   
    395000   1.0209222      0.0066222517   0.67675153    -0.336577     
    396000   1.0308275      0.0065687374   0.72185903    -0.30130119   
    397000   0.97920636     0.0065950017   0.66053191    -0.31139109   
    398000   1.0149226      0.0049800083   0.70550829    -0.30186532   
    399000   1.0073734      0.0057117741   0.69503068    -0.30484988   
    400000   1.040138       0.0054038626   0.71419512    -0.31820635   
    401000   1.0952842      0.0048945738   0.75755668    -0.32958075   
    402000   1.0302224      0.0054029022   0.69738773    -0.32517183   
    403000   0.9977107      0.0055807279   0.6748977     -0.315392     
    404000   0.92552245     0.005681822    0.6095673     -0.30907109   
    405000   0.99472179     0.0065473412   0.65066719    -0.33665584   
    406000   0.9493255      0.0058309576   0.61756336    -0.32470105   
    407000   0.97681906     0.0057144612   0.65260869    -0.31694478   
    408000   0.98253185     0.0068356232   0.69860449    -0.27661927   
    409000   1.0788852      0.0069895445   0.78519903    -0.28566139   
    410000   1.0100074      0.0056071104   0.69613089    -0.30636403   
    411000   1.0151861      0.0057313297   0.71095453    -0.29668063   
    412000   1.0131966      0.0068273789   0.69786701    -0.30779341   
    413000   0.98153003     0.0060222988   0.644091      -0.33013839   
    414000   1.008879       0.0062974721   0.69853308    -0.30284184   
    415000   0.97129107     0.0062458107   0.64215858    -0.32190801   
    416000   0.93621713     0.0061113169   0.60984325    -0.31941028   
    417000   1.0321072      0.0067939691   0.6962198     -0.32821059   
    418000   1.0320375      0.0066682491   0.71431487    -0.31004633   
    419000   0.98459882     0.0050773533   0.6604957     -0.31677967   
    420000   1.0221184      0.0063761914   0.67360089    -0.34091502   
    421000   1.0332484      0.005482323    0.69399062    -0.33157242   
    422000   1.0427193      0.0056548769   0.70284904    -0.33211452   
    423000   1.0440651      0.0052198181   0.6822502     -0.35404913   
    424000   1.0342797      0.0056498967   0.68511595    -0.34147071   
    425000   0.98705227     0.0057344574   0.64783121    -0.33187935   
    426000   0.98371426     0.0052613703   0.62549683    -0.35090055   
    427000   1.0169345      0.0055965354   0.68984029    -0.31953028   
    428000   0.99552824     0.0038704554   0.67737503    -0.31074846   
    429000   1.0038261      0.0053906546   0.67581762    -0.32054201   
    430000   0.96170409     0.0052076875   0.6139099     -0.34064101   
    431000   0.97829123     0.0056829392   0.64325361    -0.32776107   
    432000   1.0618118      0.0072802911   0.74017385    -0.31374017   
    433000   1.0513999      0.0057508149   0.70744014    -0.33613942   
    434000   1.0399123      0.0071085195   0.69850632    -0.33367108   
    435000   0.99132202     0.0048546169   0.65561727    -0.32833128   
    436000   0.98877745     0.0054755664   0.65237166    -0.32905124   
    437000   0.95566482     0.0059704237   0.62023077    -0.3283258    
    438000   0.95692169     0.0052933742   0.61312844    -0.33667565   
    439000   0.996769       0.0057357246   0.66068181    -0.32867321   
    440000   0.93801969     0.0054063857   0.60171884    -0.32932384   
    441000   0.97916659     0.0069442856   0.62446687    -0.34741666   
    442000   1.0953454      0.0063897602   0.76905745    -0.31814079   
    443000   1.0104767      0.005229793    0.66540768    -0.33755303   
    444000   0.99455917     0.0046108977   0.62932065    -0.35784097   
    445000   1.0940357      0.0057946764   0.73981035    -0.34608789   
    446000   0.9541601      0.0060872489   0.59257882    -0.35448422   
    447000   0.99778459     0.0060072132   0.66288036    -0.32748269   
    448000   1.0351894      0.0066138894   0.71876909    -0.30872056   
    449000   1.0517158      0.0054568118   0.7195921     -0.32430098   
    450000   0.98234898     0.0059083718   0.6379112     -0.33713106   
    451000   0.97984151     0.005829626    0.63810114    -0.33445229   
    452000   0.95654459     0.0050842332   0.61832906    -0.33110073   
    453000   0.98709496     0.0055981352   0.63316705    -0.34658588   
    454000   0.99605528     0.0057404343   0.69658567    -0.29206094   
    455000   0.99400984     0.006256705    0.64409981    -0.34251657   
    456000   0.99454202     0.0056691719   0.667619      -0.3195256    
    457000   1.0355271      0.0072947577   0.71807278    -0.30975203   
    458000   0.93886782     0.0049973815   0.62328037    -0.30860413   
    459000   0.98976906     0.0048158494   0.67187593    -0.31053121   
    460000   1.0238212      0.0059161382   0.71609943    -0.30010653   
    461000   1.1352497      0.0070208063   0.80536979    -0.32143595   
    462000   1.0878799      0.0071254281   0.7777426     -0.30204568   
    463000   1.0248553      0.006054278    0.69906056    -0.31817183   
    464000   1.0218002      0.0057728835   0.70270044    -0.31149963   
    465000   1.040023       0.0051125274   0.71380984    -0.3184774    
    466000   0.95235671     0.0051739368   0.64918464    -0.29608842   
    467000   0.92457111     0.0058098      0.58708217    -0.33061196   
    468000   1.0257406      0.0061227567   0.69818685    -0.31992427   
    469000   0.9873259      0.0056307911   0.66028373    -0.31969842   
    470000   0.98448564     0.0066081085   0.63098281    -0.3461802    
    471000   1.0389704      0.005752025    0.67510279    -0.35613969   
    472000   1.0239076      0.0057002645   0.6808142     -0.33547756   
    473000   1.0022563      0.0060886107   0.67510527    -0.31969619   
    474000   1.0600729      0.006428218    0.7296765     -0.32251154   
    475000   1.0451809      0.006232452    0.7336704     -0.30373641   
    476000   1.0513105      0.0054485367   0.72982872    -0.31366211   
    477000   1.0118578      0.0071662844   0.69459577    -0.30973585   
    478000   1.0021866      0.0053710654   0.70896855    -0.28576378   
    479000   0.91515136     0.0051426024   0.62068692    -0.28765753   
    480000   0.99098414     0.0043686509   0.70138566    -0.28222752   
    481000   0.97871346     0.0064238372   0.67115206    -0.30028172   
    482000   1.0012032      0.0055264302   0.6877794     -0.30597687   
    483000   0.98893562     0.0059701108   0.68762351    -0.29395639   
    484000   0.91631959     0.0050913891   0.6140408     -0.29546319   
    485000   1.0295579      0.0056711614   0.74459396    -0.27730607   
    486000   0.97188515     0.0059183113   0.66010051    -0.30455574   
    487000   0.90615258     0.004655959    0.60445012    -0.29496249   
    488000   0.97924059     0.0054228726   0.67890248    -0.29305451   
    489000   0.98266022     0.0050605627   0.69919492    -0.27615626   
    490000   0.95988926     0.0068188111   0.67209063    -0.28065896   
    491000   0.98841546     0.0056154703   0.70411933    -0.27694427   
    492000   0.95658503     0.0041900946   0.64679911    -0.30267082   
    493000   1.015746       0.0065105363   0.70156772    -0.30662314   
    494000   0.98071819     0.0058754336   0.67393838    -0.29948521   
    495000   1.0061288      0.0070422153   0.70789194    -0.29075322   
    496000   1.0045959      0.0050576621   0.70367383    -0.29344992   
    497000   0.95878839     0.006148725    0.65053011    -0.3011268    
    498000   1.0308024      0.0072072939   0.740025      -0.28311026   
    499000   0.99568714     0.0061437389   0.6979135     -0.2903677    
    500000   1.0209171      0.0052688902   0.7535648     -0.25975866   
    501000   1.0605229      0.006388261    0.78355854    -0.26907615   
    502000   1.036067       0.0061714806   0.76800795    -0.26035273   
    503000   0.97969288     0.0054104556   0.70755417    -0.26485174   
    504000   0.94337541     0.0060533564   0.65718927    -0.2791693    
    505000   1.0067857      0.0068900342   0.72604016    -0.2732571    
    506000   0.91897021     0.0054825891   0.62795085    -0.28418404   
    507000   1.0326173      0.0066076998   0.73973704    -0.28519966   
    508000   0.94966439     0.005930401    0.65316262    -0.28943815   
    509000   0.97045784     0.005442915    0.67292759    -0.29031197   
    510000   1.0085134      0.0049058138   0.70206133    -0.29895077   
    511000   0.98699691     0.0061335219   0.66795158    -0.31170404   
    512000   0.98737599     0.0059120629   0.70220983    -0.27782204   
    513000   0.96963848     0.0058321281   0.68991525    -0.27251104   
    514000   0.99093691     0.0070202251   0.7066453     -0.276921     
    515000   1.1245031      0.0067401824   0.8105057     -0.30563331   
    516000   1.0403245      0.0065781499   0.73220288    -0.30038366   
    517000   1.0449976      0.0062350636   0.75422909    -0.2829958    
    518000   0.94185593     0.004460309    0.64421036    -0.29064003   
    519000   1.0188877      0.0057047699   0.7316809     -0.27962831   
    520000   0.98455071     0.0054793753   0.6824775     -0.29475011   
    521000   0.95046023     0.0052073881   0.66520712    -0.27818357   
    522000   1.0176187      0.006249767    0.70252539    -0.30752424   
    523000   0.98880707     0.0061187267   0.69116129    -0.29029102   
    524000   0.98279072     0.0059087921   0.64932336    -0.32615734   
    525000   0.96851372     0.0056354958   0.65320192    -0.30810798   
    526000   0.98574336     0.0060666719   0.67318909    -0.30522229   
    527000   0.9602876      0.0062918583   0.66317863    -0.28996634   
    528000   0.9799867      0.0062453109   0.6572137     -0.31548384   
    529000   0.958838       0.0048692674   0.66961476    -0.28209139   
    530000   1.0057308      0.0041161391   0.68795487    -0.31029532   
    531000   1.0332469      0.0054600292   0.6927737     -0.33278792   
    532000   1.0237613      0.0057922736   0.69816164    -0.31798491   
    533000   0.94308605     0.0048760259   0.61164824    -0.32442313   
    534000   0.94396759     0.0054038351   0.60873059    -0.32821575   
    535000   0.97015532     0.0052938591   0.63730819    -0.32563109   
    536000   0.93602179     0.0048277861   0.59776648    -0.33129317   
    537000   1.0195908      0.0057558488   0.66338176    -0.34862536   
    538000   1.0482024      0.0057658702   0.69762732    -0.34277856   
    539000   1.0027673      0.0053490741   0.67083274    -0.32447598   
    540000   0.96583353     0.0060928802   0.63429801    -0.32435163   
    541000   0.98325057     0.0054925057   0.65826993    -0.31766721   
    542000   0.9292354      0.0045970255   0.60911503    -0.31320871   
    543000   1.054716       0.0062373571   0.74362003    -0.30325098   
    544000   1.0039172      0.005828726    0.6760407     -0.32040938   
    545000   1.0106525      0.0062569534   0.71779539    -0.28533986   
    546000   0.95922394     0.0049191706   0.65292148    -0.29916774   
    547000   1.1285987      0.0075407886   0.86470642    -0.25549771   
    548000   1.1136974      0.0068554058   0.81226201    -0.29315174   
    549000   0.97718059     0.0051191202   0.69544105    -0.27447125   
    550000   1.0360132      0.0063478448   0.7357335     -0.29257384   
    551000   1.040552       0.0061814448   0.71660896    -0.31620336   
    552000   1.0221503      0.0062826811   0.72188425    -0.29266324   
    553000   0.95848594     0.0039668203   0.64102273    -0.31033397   
    554000   0.98619066     0.0065211068   0.66390763    -0.31494773   
    555000   1.0434095      0.0056817188   0.73289807    -0.30275049   
    556000   0.98854219     0.0052460578   0.66536966    -0.31581974   
    557000   1.0233523      0.0066333871   0.6937678     -0.32197275   
    558000   0.97336565     0.006368288    0.66047357    -0.30565217   
    559000   0.97234942     0.0057173667   0.64373423    -0.32138284   
    560000   1.0209922      0.0051010096   0.70158144    -0.31181659   
    561000   0.95665273     0.0068209038   0.63074393    -0.31879321   
    562000   0.97138228     0.0049734248   0.6516996     -0.31245753   
    563000   1.004249       0.0049989802   0.68607484    -0.31070456   
    564000   1.0110771      0.0060845089   0.69680936    -0.30674732   
    565000   1.0566095      0.0054056124   0.74878004    -0.29997034   
    566000   1.0097213      0.007069917    0.70831996    -0.29389104   
    567000   1.021083       0.0063995811   0.71805022    -0.2954379    
    568000   1.0408855      0.0058875657   0.74222146    -0.29092191   
    569000   0.97168181     0.0061830451   0.65636253    -0.30809189   
    570000   0.94120341     0.0057961972   0.63804194    -0.29616079   
    571000   0.95628102     0.006236149    0.64273571    -0.30643247   
    572000   1.0112328      0.0054825475   0.71621697    -0.28749422   
    573000   0.99336737     0.0055398723   0.6796376     -0.30634109   
    574000   1.0646383      0.0066394899   0.77961151    -0.27710804   
    575000   0.98373351     0.00480473     0.70229537    -0.27412111   
    576000   1.0661648      0.0057925947   0.77401317    -0.2842215    
    577000   0.94318258     0.0050408093   0.65942527    -0.2767419    
    578000   1.0322201      0.0059392866   0.7204663     -0.30407615   
    579000   1.0127726      0.0058200924   0.71150528    -0.29373426   
    580000   1.0080194      0.0055288801   0.71933158    -0.2811902    
    581000   0.99848609     0.0061889275   0.69945038    -0.29160895   
    582000   1.0224164      0.0061681303   0.73089162    -0.28392001   
    583000   0.98918838     0.0059964274   0.68539137    -0.29643941   
    584000   0.92655991     0.0057342203   0.63425223    -0.28541592   
    585000   1.0455672      0.0067139259   0.75016145    -0.28762879   
    586000   1.0249883      0.0059912513   0.73271623    -0.28464817   
    587000   0.93869236     0.0045564688   0.64074509    -0.29096525   
    588000   0.94522813     0.0051732922   0.63595683    -0.30224068   
    589000   0.94096988     0.0052362806   0.66917184    -0.26479908   
    590000   1.068104       0.0066470369   0.79323994    -0.26691946   
    591000   1.0249773      0.0064792476   0.73581289    -0.28154065   
    592000   1.0035046      0.0075853527   0.70306944    -0.29297107   
    593000   0.97800911     0.0048796618   0.68328796    -0.2874467    
    594000   1.0137866      0.0055581498   0.73553049    -0.27071551   
    595000   1.0024195      0.005401506    0.7260339     -0.26892961   
    596000   1.0654799      0.0062964409   0.7932845     -0.26427038   
    597000   0.99298757     0.0052218648   0.72022691    -0.26537481   
    598000   0.96117378     0.0043376994   0.6723379     -0.28168665   
    599000   1.0220266      0.0053464375   0.71359351    -0.30083126   
    600000   0.99449876     0.0048663852   0.70829213    -0.27880953   
    601000   1.0001341      0.0061501382   0.70616708    -0.286528     
    602000   0.98552805     0.0061090629   0.68269999    -0.29549769   
    603000   1.0166658      0.0056986141   0.7057929     -0.3033109    
    604000   0.96194581     0.0051684239   0.66876608    -0.28602476   
    605000   0.98861377     0.0058203743   0.69312875    -0.2881317    
    606000   1.0371468      0.005753752    0.74303853    -0.28639397   
    607000   0.96827422     0.0045786635   0.6737742     -0.28729797   
    608000   1.0289385      0.0053369294   0.74805745    -0.27322774   
    609000   0.96862063     0.0048677433   0.68179052    -0.27962549   
    610000   0.99757202     0.0064177761   0.68932668    -0.30082539   
    611000   1.0029891      0.0052364016   0.69009747    -0.3054314    
    612000   0.97157675     0.0061872758   0.66032615    -0.304024     
    613000   1.0245434      0.0060106135   0.69911956    -0.31780327   
    614000   1.0183609      0.0065117065   0.72163094    -0.2891554    
    615000   1.0107651      0.0050412962   0.69058879    -0.3126582    
    616000   0.94334766     0.0061400313   0.64366967    -0.29266135   
    617000   0.99991576     0.0050156992   0.67991364    -0.31256473   
    618000   0.9295495      0.0044916481   0.61903406    -0.30360143   
    619000   0.96377346     0.0055558618   0.64595421    -0.31065069   
    620000   0.97666697     0.005813777    0.68207208    -0.28733043   
    621000   1.0259492      0.0057963276   0.69443494    -0.32388319   
    622000   0.98715718     0.005880272    0.66093794    -0.31887675   
    623000   1.0601162      0.0060930794   0.74561236    -0.30661865   
    624000   0.98507911     0.0062419372   0.64774965    -0.33000243   
    625000   0.92192595     0.0050182581   0.57688898    -0.33817967   
    626000   1.0069637      0.0052185545   0.68487918    -0.31459469   
    627000   1.0814495      0.0065237444   0.72836112    -0.34504451   
    628000   0.98457462     0.0061789183   0.63760132    -0.33965002   
    629000   0.97751191     0.0050342467   0.63656348    -0.33367768   
    630000   1.0196129      0.005876       0.70375026    -0.30827876   
    631000   0.96923992     0.0064984933   0.63390244    -0.32812825   
    632000   0.95268599     0.0058368679   0.64662191    -0.29897799   
    633000   0.98989634     0.0048950558   0.69031644    -0.29221703   
    634000   1.0484082      0.0067597636   0.72128728    -0.3193228    
    635000   1.0107571      0.0062197283   0.6957304     -0.30750862   
    636000   0.97659099     0.005825145    0.67216439    -0.2971627    
    637000   0.9477767      0.0049347838   0.64243488    -0.29829224   
    638000   1.0297724      0.0067425481   0.71135844    -0.31075454   
    639000   1.009424       0.0062191509   0.68854854    -0.31336735   
    640000   0.96117106     0.0055999022   0.67002923    -0.28399263   
    641000   1.0061887      0.0061630908   0.6829276     -0.3157771    
    642000   0.97779432     0.0052566545   0.64571129    -0.32481018   
    643000   0.97953322     0.0065020933   0.66750844    -0.304739     
    644000   1.0274765      0.0054766926   0.70402836    -0.31580576   
    645000   0.99343827     0.00544805     0.68541585    -0.30063321   
    646000   1.0218879      0.0060333291   0.70910567    -0.30518144   
    647000   0.97903922     0.0048741569   0.6620414     -0.30971571   
    648000   0.99621121     0.0063858635   0.67967983    -0.30912155   
    649000   0.98524695     0.0060739203   0.6766721     -0.30124657   
    650000   0.98435862     0.0068653118   0.67034139    -0.30669555   
    651000   0.97432378     0.0055859381   0.67135922    -0.29571752   
    652000   1.0264701      0.0057688877   0.72012928    -0.29870587   
    653000   1.0055069      0.0066638526   0.70139851    -0.29662938   
    654000   1.0236717      0.0056189566   0.70805849    -0.3079991    
    655000   0.94029711     0.0061731872   0.62289389    -0.31040928   
    656000   0.96242407     0.0061119442   0.64341939    -0.31184615   
    657000   0.9791335      0.0054334619   0.67602363    -0.29582706   
    658000   1.019419       0.0053729788   0.715943      -0.29589352   
    659000   0.99954078     0.0066053086   0.69091004    -0.30119614   
    660000   0.98778339     0.0059186081   0.66962866    -0.31080758   
    661000   1.0041219      0.0060383263   0.68245257    -0.31420068   
    662000   0.94743427     0.0057441552   0.59818461    -0.34220263   
    663000   1.0255099      0.005486523    0.68379152    -0.33409061   
    664000   1.0030481      0.0063715583   0.66885647    -0.3267309    
    665000   1.0118624      0.005661676    0.69188009    -0.31245605   
    666000   0.96549804     0.0063822458   0.60164099    -0.35667566   
    667000   1.0502664      0.0053850479   0.72743273    -0.31502179   
    668000   0.95398289     0.0063307559   0.61290027    -0.33398687   
    669000   1.0209515      0.005334657    0.67496998    -0.33838771   
    670000   0.99339885     0.0055946363   0.65536531    -0.33064462   
    671000   0.96810932     0.0055620458   0.63559648    -0.32531202   
    672000   1.0629915      0.0060692062   0.71898032    -0.33610468   
    673000   1.0428541      0.0071007085   0.70527428    -0.329823     
    674000   1.0062018      0.0051651866   0.67937363    -0.31934398   
    675000   1.0213377      0.00630074     0.68923426    -0.32450675   
    676000   0.95558931     0.0052662315   0.6544869     -0.29399473   
    677000   1.0077344      0.0072492073   0.68468197    -0.31555691   
    678000   1.0257516      0.0059958633   0.68889118    -0.32923084   
    679000   1.0146384      0.0060445056   0.67667258    -0.33041897   
    680000   0.99866153     0.0059584333   0.67621024    -0.31502323   
    681000   0.97634078     0.0066929156   0.64929736    -0.31978138   
    682000   0.88150666     0.0047226653   0.56011407    -0.31483593   
    683000   0.98201981     0.0053267652   0.66002569    -0.31468985   
    684000   1.0583373      0.0071480732   0.72939272    -0.32107263   
    685000   0.94686335     0.00477753     0.62581516    -0.31400541   
    686000   0.95694466     0.0064924492   0.63454867    -0.31527822   
    687000   0.97531271     0.0059486968   0.6424357     -0.32562262   
    688000   1.0155403      0.0056985406   0.68913139    -0.3188553    
    689000   0.991369       0.0064904278   0.67399024    -0.31000494   
    690000   1.0354001      0.0067599957   0.71199754    -0.31570127   
    691000   0.9796338      0.0054780473   0.65512425    -0.31722301   
    692000   0.99805064     0.0067560478   0.65941399    -0.33121313   
    693000   1.0250872      0.0056119926   0.70006384    -0.31739878   
    694000   0.96455104     0.0052048861   0.64585623    -0.31152046   
    695000   0.93125085     0.0053880088   0.62330759    -0.3010166    
    696000   1.0624416      0.0068011863   0.76062212    -0.29391707   
    697000   0.93609883     0.0048986474   0.64441317    -0.28472294   
    698000   0.94697543     0.0045732268   0.65599345    -0.28393836   
    699000   1.0249104      0.0056808387   0.73815246    -0.27913461   
    700000   0.99469964     0.0053877473   0.69888762    -0.28841342   
    701000   1.0061218      0.0060889988   0.72211828    -0.27651997   
    702000   1.0664677      0.0055451954   0.75906329    -0.29947202   
    703000   1.0628416      0.005853204    0.76472336    -0.29021277   
    704000   1.0357986      0.0055452719   0.72369288    -0.30440143   
    705000   1.0376108      0.005931098    0.73091043    -0.29898261   
    706000   1.0377037      0.0053916095   0.71519393    -0.31479136   
    707000   1.0976706      0.0073505415   0.79612672    -0.29337938   
    708000   0.96563971     0.0065968883   0.64883995    -0.30961732   
    709000   0.96702292     0.0058043288   0.67182601    -0.28800418   
    710000   1.0550924      0.0058885577   0.75539636    -0.29184822   
    711000   1.0837502      0.0055925778   0.794745      -0.28094424   
    712000   1.0051891      0.0051768012   0.69694261    -0.3007699    
    713000   1.1024816      0.0060819553   0.81619681    -0.27808451   
    714000   1.0379908      0.0060675133   0.73689785    -0.29337234   
    715000   0.98280499     0.0049772833   0.69632274    -0.27917213   
    716000   1.0069686      0.005708247    0.71278514    -0.28669357   
    717000   1.0144456      0.0062818773   0.70484702    -0.30205308   
    718000   1.0398087      0.0070091117   0.74509068    -0.28698393   
    719000   1.0002753      0.0063827582   0.71010372    -0.28273151   
    720000   1.0076382      0.0051121748   0.72498833    -0.27515501   
    721000   0.94667682     0.0049277625   0.64686439    -0.29277103   
    722000   1.043456       0.0066003859   0.75258258    -0.28311215   
    723000   0.93954154     0.0045790468   0.64109699    -0.29145622   
    724000   1.019085       0.0055501796   0.70886067    -0.30264439   
    725000   0.99441981     0.0057565224   0.67072514    -0.31629816   
    726000   1.0236903      0.0061493929   0.73774681    -0.27832924   
    727000   1.0300008      0.0055672679   0.72721743    -0.29512221   
    728000   0.95719178     0.004506214    0.65518049    -0.29489168   
    729000   1.0514987      0.0051781567   0.74909103    -0.29458658   
    730000   1.0000271      0.007074559    0.68820765    -0.30438119   
    731000   1.0252099      0.0060996891   0.72806533    -0.28951901   
    732000   1.0065936      0.004983542    0.70880672    -0.29029983   
    733000   1.0026942      0.0067688481   0.66489047    -0.3303457    
    734000   1.024731       0.0049624246   0.69182961    -0.32527939   
    735000   1.0068202      0.0055957295   0.65848795    -0.34084353   
    736000   0.95178002     0.0056217577   0.62922421    -0.31547645   
    737000   0.97106023     0.0055407287   0.63966132    -0.32417615   
    738000   1.041634       0.0062850015   0.70947335    -0.32441298   
    739000   0.99541486     0.0056861415   0.65567095    -0.33234      
    740000   0.91356334     0.00555863     0.57363509    -0.33313316   
    741000   0.99910328     0.0071278253   0.67909824    -0.3125737    
    742000   0.95575968     0.0053423331   0.61312064    -0.33553008   
    743000   0.99989494     0.0051581737   0.67277751    -0.31968019   
    744000   0.979497       0.0059765092   0.64034224    -0.33186925   
    745000   1.0016395      0.0064101796   0.66331709    -0.33087216   
    746000   0.9920179      0.0056902946   0.67839018    -0.30624907   
    747000   0.95163599     0.0057791302   0.61614377    -0.32841394   
    748000   0.96293329     0.006312518    0.60967534    -0.34609563   
    749000   1.0638672      0.0067442023   0.73283678    -0.32311731   
    750000   0.99305292     0.0063043637   0.63177787    -0.3538887    
    751000   1.0294636      0.006064265    0.67977759    -0.34202885   
    752000   1.057392       0.0066958235   0.70039154    -0.34913554   
    753000   1.0465465      0.0052951061   0.71782397    -0.32093831   
    754000   1.0458816      0.0074488617   0.69594382    -0.34215853   
    755000   0.98371917     0.0057648817   0.63582611    -0.34057614   
    756000   0.9565619      0.0060119829   0.62871922    -0.32072775   
    757000   0.99257636     0.0058176437   0.66046607    -0.32472749   
    758000   0.95919709     0.0047023543   0.61677407    -0.3352885    
    759000   0.95255187     0.0049594428   0.65619621    -0.28927056   
    760000   0.98541608     0.006161954    0.64417883    -0.33390771   
    761000   1.0631036      0.0061215652   0.73507848    -0.32011773   
    762000   1.0422159      0.0062871139   0.70436523    -0.33009865   
    763000   1.0811703      0.0067790874   0.75239707    -0.3207315    
    764000   1.0380693      0.0058272292   0.73210372    -0.29824444   
    765000   1.0197422      0.0070322028   0.68301233    -0.32914502   
    766000   0.94437091     0.0054441029   0.60011033    -0.33723633   
    767000   1.0048189      0.0061938087   0.67025526    -0.32708976   
    768000   1.0491656      0.0060295763   0.69622429    -0.34513757   
    769000   0.99649172     0.0060206303   0.62440506    -0.36467474   
    770000   0.99490945     0.0062242382   0.63682667    -0.35068262   
    771000   0.95701264     0.0059682009   0.59584781    -0.35404655   
    772000   1.0341645      0.0064714053   0.67868666    -0.34778573   
    773000   0.97852627     0.0057657346   0.62471839    -0.34652959   
    774000   0.87579742     0.0050770282   0.52495958    -0.34432364   
    775000   0.99724621     0.0044590049   0.65523177    -0.3345969    
    776000   1.0134255      0.0043603043   0.66206226    -0.34382534   
    777000   0.99373836     0.0051164128   0.6730765     -0.31327042   
    778000   0.95869044     0.0056240303   0.5898454     -0.36171428   
    779000   0.99535721     0.0063879983   0.64195594    -0.34599778   
    780000   1.088784       0.0068403835   0.72705538    -0.35363018   
    781000   1.0568862      0.004681035    0.68040506    -0.36861999   
    782000   0.99314864     0.0064253112   0.6106614     -0.37510019   
    783000   1.0221511      0.006364042    0.66371464    -0.35083364   
    784000   1.0067372      0.0059429422   0.63028767    -0.36896143   
    785000   1.0090075      0.0058223567   0.62882937    -0.37267311   
    786000   1.0056524      0.0058237654   0.61426563    -0.38390667   
    787000   1.0411972      0.0052794312   0.67645101    -0.35700177   
    788000   0.99594639     0.0050446506   0.62141186    -0.36712666   
    789000   0.96070577     0.0057155419   0.60537285    -0.34818718   
    790000   0.93889688     0.0038088294   0.5980582     -0.33385516   
    791000   1.0235297      0.0052069899   0.65654129    -0.35937538   
    792000   1.0532678      0.0067182686   0.71143774    -0.33399583   
    793000   0.97404409     0.0060357426   0.62944001    -0.33735913   
    794000   0.9783365      0.0061162884   0.64402551    -0.3270341    
    795000   0.98624441     0.0046124036   0.68128232    -0.29762639   
    796000   0.92362796     0.0049134605   0.59102103    -0.32573697   
    797000   0.98067923     0.0061652042   0.65313583    -0.32024909   
    798000   0.99230051     0.0055867143   0.67296876    -0.31195101   
    799000   1.0272316      0.0049917641   0.70204137    -0.3175497    
    800000   1.0245098      0.0062498552   0.69109765    -0.3257918    
    801000   1.0404125      0.0056708768   0.693048      -0.33962593   
    802000   1.0523576      0.0044968595   0.69338016    -0.35114999   
    803000   1.0622683      0.0068484018   0.69258377    -0.36178335   
    804000   0.99540134     0.0053816207   0.59904588    -0.38895165   
    805000   0.95943529     0.0045759213   0.60214441    -0.35015459   
    806000   1.0033702      0.006059792    0.62010864    -0.37579852   
    807000   0.99762864     0.0058905083   0.63255083    -0.35765743   
    808000   0.93246325     0.0059104425   0.56740795    -0.35811963   
    809000   1.0115139      0.0056011556   0.65361456    -0.35037566   
    810000   0.99815401     0.0050061758   0.65594529    -0.33478443   
    811000   0.98217972     0.0052773889   0.63620053    -0.33867372   
    812000   1.0516133      0.0061180031   0.67710127    -0.36669012   
    813000   1.0018945      0.0050902662   0.65455356    -0.33988883   
    814000   1.0225016      0.006532567    0.6856911     -0.32920513   
    815000   1.009753       0.0059447884   0.65999413    -0.34224834   
    816000   0.99349527     0.0049169562   0.6426788     -0.34342683   
    817000   0.95695286     0.0053807914   0.63199389    -0.31784113   
    818000   0.96194559     0.0050867123   0.65732641    -0.29746421   
    819000   1.0321306      0.0063513899   0.72958854    -0.29486501   
    820000   0.96036063     0.0056457684   0.67572785    -0.2774896    
    821000   0.97188169     0.0053173997   0.68313908    -0.28151374   
    822000   1.0329692      0.0061746019   0.76628294    -0.25900302   
    823000   1.0388612      0.0053846173   0.7641833     -0.26695083   
    824000   1.0320368      0.0064165816   0.70865102    -0.31570949   
    825000   1.0035963      0.0064474869   0.69254436    -0.30358717   
    826000   0.9790731      0.0060878112   0.65714859    -0.31464215   
    827000   0.97667383     0.0051888637   0.64101079    -0.32839852   
    828000   0.95125283     0.0035162856   0.6256514     -0.31852599   
    829000   0.97879215     0.0055173308   0.65035635    -0.32115553   
    830000   0.98229777     0.0057803918   0.64744001    -0.32755142   
    831000   0.98939246     0.0061683009   0.65663149    -0.32540186   
    832000   0.96384603     0.0054155277   0.63236295    -0.32431398   
    833000   0.99914353     0.0051601559   0.64595051    -0.34576137   
    834000   1.0436938      0.0057051613   0.69476567    -0.34116509   
    835000   0.95160099     0.0055747645   0.58677563    -0.35774733   
    836000   1.0246626      0.0061911259   0.6429165     -0.37412462   
    837000   1.0080483      0.0059028048   0.63957578    -0.36097464   
    838000   1.0577458      0.0069587462   0.67202797    -0.37785034   
    839000   0.96011998     0.0055399393   0.61931806    -0.33366054   
    840000   1.0737179      0.0060335637   0.72693521    -0.33879638   
    841000   1.0050932      0.0058169243   0.68436287    -0.31325442   
    842000   0.98259365     0.0057106892   0.6077443     -0.3675408    
    843000   0.98170609     0.0056419337   0.63846296    -0.33594119   
    844000   0.9989899      0.0062169008   0.62880274    -0.36275666   
    845000   1.0555827      0.0062588844   0.69708693    -0.35064436   
    846000   1.056813       0.0068348017   0.69352636    -0.35542605   
    847000   1.0153532      0.0059480724   0.64933347    -0.35846752   
    848000   1.0439088      0.0057278139   0.6589598     -0.37718442   
    849000   0.94907617     0.0058764527   0.5833142     -0.35870273   
    850000   1.0773483      0.0072188618   0.71382347    -0.35551146   
    851000   1.0152051      0.0063501285   0.64203971    -0.36561426   
    852000   0.97825903     0.0049062375   0.61184831    -0.35913442   
    853000   0.99129514     0.0057702174   0.60411945    -0.37980242   
    854000   1.0264831      0.0063590691   0.65323813    -0.36561001   
    855000   0.96862378     0.0056842243   0.59265579    -0.36876335   
    856000   1.0626311      0.0060095991   0.6829279     -0.37179932   
    857000   0.90250311     0.0057480271   0.53939248    -0.35639779   
    858000   1.0259491      0.0056793795   0.65473524    -0.36358287   
    859000   0.99445725     0.0054159185   0.62254019    -0.36452026   
    860000   1.0197519      0.0058378474   0.66084026    -0.35132674   
    861000   1.0303919      0.0056499739   0.65235017    -0.37037762   
    862000   1.0090094      0.005679322    0.63269967    -0.36880473   
    863000   1.0099425      0.0055119852   0.62842423    -0.37400635   
    864000   0.99701576     0.0067957851   0.65725288    -0.33234706   
    865000   0.99687643     0.0058013934   0.68498929    -0.30447236   
    866000   1.0417573      0.0057176301   0.68856489    -0.34544384   
    867000   0.95085706     0.0056302666   0.60587349    -0.33791108   
    868000   1.0035182      0.0058035122   0.65714876    -0.33890521   
    869000   0.97869705     0.0056198128   0.64388703    -0.32753045   
    870000   0.99947605     0.0057383638   0.65069695    -0.34134499   
    871000   0.92477627     0.0051716923   0.58425768    -0.33364009   
    872000   1.0070335      0.0059426365   0.6679092     -0.331634     
    873000   1.0221206      0.0054163522   0.66901274    -0.34550536   
    874000   0.96951797     0.0047873237   0.64572669    -0.31657999   
    875000   0.99145075     0.0059574481   0.65351175    -0.33056457   
    876000   0.99175057     0.0056504538   0.66475468    -0.31961924   
    877000   1.0559425      0.0067993503   0.74593249    -0.30215593   
    878000   0.93980081     0.0057506368   0.63980383    -0.29300672   
    879000   0.9876248      0.0061116023   0.693342      -0.28693683   
    880000   1.0081783      0.0051953931   0.71285007    -0.28782934   
    881000   0.97945272     0.005984994    0.6832663     -0.28890123   
    882000   1.0399049      0.0055224966   0.73789901    -0.29427105   
    883000   0.95228825     0.0061494119   0.64942019    -0.29578492   
    884000   0.95018552     0.0050408283   0.65629808    -0.28681995   
    885000   1.0763573      0.0067331641   0.78390557    -0.28444576   
    886000   0.97583313     0.0057857418   0.70107766    -0.26749721   
    887000   1.0040031      0.0058822132   0.70136752    -0.29516781   
    888000   1.0409133      0.0059216411   0.75106035    -0.28211063   
    889000   1.0156558      0.0055878237   0.72753569    -0.28056562   
    890000   0.99057504     0.0060095289   0.71889002    -0.26431711   
    891000   0.99327949     0.0055744583   0.70654216    -0.2793493    
    892000   0.96511235     0.0062040656   0.7086192     -0.24931463   
    893000   1.0389357      0.0070858188   0.77835708    -0.25285096   
    894000   1.0614819      0.0059179632   0.80645355    -0.24713306   
    895000   1.0181852      0.0064697403   0.75104435    -0.25956757   
    896000   0.98018047     0.0063346777   0.73911238    -0.2337775    
    897000   0.94248319     0.0054969586   0.67297479    -0.2624982    
    898000   1.0487821      0.0064719409   0.7801513     -0.26082998   
    899000   1.0148077      0.0052297494   0.75309211    -0.25416741   
    900000   1.0323664      0.0067316555   0.76056637    -0.26412123   
    901000   0.98558561     0.0051292717   0.73105271    -0.24720209   
    902000   1.0425636      0.0070691615   0.77828679    -0.25652216   
    903000   0.98903541     0.0057500141   0.71899302    -0.26268594   
    904000   1.0140979      0.0047391024   0.73395945    -0.27259557   
    905000   1.0139814      0.0054505735   0.74273015    -0.26370924   
    906000   1.0074003      0.0059429693   0.75150385    -0.24840336   
    907000   0.98041492     0.0067406463   0.74240718    -0.2307154    
    908000   0.93778431     0.0055881921   0.68586594    -0.24494311   
    909000   1.0302495      0.004495963    0.76475125    -0.25783521   
    910000   1.0150825      0.0061909433   0.74437118    -0.26316114   
    911000   0.98987629     0.0062512559   0.73315143    -0.24936214   
    912000   1.1084322      0.0065616188   0.83707575    -0.26311196   
    913000   0.94160894     0.0067441691   0.65604415    -0.27856109   
    914000   1.0053207      0.0050181831   0.72473515    -0.27310798   
    915000   0.99482355     0.005314999    0.71136307    -0.27606096   
    916000   1.0462287      0.0059886047   0.75052185    -0.28792503   
    917000   1.0078779      0.0056360451   0.72361459    -0.27676669   
    918000   0.96422009     0.0060659048   0.66620816    -0.29084005   
    919000   0.98545812     0.0066216631   0.71058839    -0.26753988   
    920000   0.9741799      0.0062897925   0.68009632    -0.28683761   
    921000   1.0612446      0.0062613576   0.80983376    -0.24351729   
    922000   0.96749697     0.0046674609   0.70800254    -0.25229817   
    923000   1.0474584      0.0060165751   0.7879638     -0.25170358   
    924000   0.98025012     0.0059546815   0.73273592    -0.24022308   
    925000   1.1488372      0.007753963    0.88479163    -0.25550045   
    926000   1.0136645      0.006155483    0.7286003     -0.27752453   
    927000   1.0218788      0.006342995    0.74416553    -0.27011248   
    928000   0.96802762     0.0064129015   0.68548588    -0.27534153   
    929000   0.93724467     0.0048046364   0.64908361    -0.28118981   
    930000   1.0276301      0.0050561414   0.74109966    -0.27888686   
    931000   0.92217795     0.0049997629   0.62576578    -0.289553     
    932000   0.98468022     0.0062055282   0.67032281    -0.30703335   
    933000   0.99870163     0.0070768378   0.70535642    -0.28591685   
    934000   0.99333897     0.0057007918   0.6907691     -0.2951814    
    935000   0.95144565     0.006303813    0.63947086    -0.30489792   
    936000   1.0032537      0.0056129176   0.700547      -0.29524452   
    937000   1.0052867      0.0067527316   0.69548755    -0.30232182   
    938000   0.99521113     0.0049778184   0.69156807    -0.29624065   
    939000   0.92498086     0.0049626332   0.61381768    -0.30428316   
    940000   1.0247018      0.0062256785   0.70030598    -0.31677405   
    941000   0.96985864     0.005181335    0.68432034    -0.27832447   
    942000   1.0419916      0.0069352005   0.74693299    -0.28730827   
    943000   0.90177113     0.0048314986   0.59727559    -0.29778815   
    944000   1.0058727      0.0059243963   0.70676481    -0.29162624   
    945000   1.0430384      0.0050652538   0.76334888    -0.27193136   
    946000   1.0064995      0.0058194144   0.69862272    -0.30039043   
    947000   0.97553406     0.0058763952   0.67778486    -0.29049316   
    948000   1.0556583      0.006062771    0.7508292     -0.2969771    
    949000   0.97115601     0.0055107598   0.6771447     -0.28678783   
    950000   1.0615676      0.0066821465   0.74485214    -0.30881947   
    951000   0.95814597     0.0061837642   0.6530661     -0.29795316   
    952000   1.0254018      0.0066270103   0.73626733    -0.28150753   
    953000   1.0078213      0.0067201398   0.70880176    -0.29152336   
    954000   1.0884789      0.0052226104   0.78730159    -0.29308118   
    955000   1.0534065      0.0061805332   0.76437383    -0.28119742   
    956000   1.0594005      0.0072335635   0.74016794    -0.31135275   
    957000   1.0247493      0.0070472902   0.69907078    -0.31805639   
    958000   0.96675931     0.0060379479   0.65473776    -0.30483078   
    959000   1.0201002      0.0060065691   0.72956224    -0.28295042   
    960000   0.99800064     0.0053147731   0.7127495     -0.277828     
    961000   0.97568778     0.0057668534   0.64655147    -0.32187913   
    962000   0.95862032     0.0052474829   0.63149442    -0.31999566   
    963000   0.97116199     0.0056685275   0.65856779    -0.30537068   
    964000   0.97919136     0.006076382    0.65486459    -0.31704353   
    965000   1.0903284      0.0069651531   0.75762291    -0.32459564   
    966000   1.0211196      0.0059513992   0.69930556    -0.31421893   
    967000   1.02007        0.0055657049   0.7143109     -0.29817182   
    968000   0.96958932     0.0058388651   0.643505      -0.31887251   
    969000   0.98219802     0.0065343551   0.66501998    -0.30987244   
    970000   1.076322       0.0070466141   0.74566574    -0.3226506    
    971000   1.0000879      0.0060908905   0.67682099    -0.31582824   
    972000   1.066037       0.0063047979   0.74055539    -0.31755244   
    973000   1.0627405      0.0055034861   0.77478896    -0.28004691   
    974000   0.99498051     0.0053487346   0.68859377    -0.29898606   
    975000   0.98642274     0.0057047308   0.67265963    -0.30642607   
    976000   0.9861623      0.0058620393   0.67176109    -0.30706612   
    977000   0.99124783     0.0055760121   0.68578753    -0.29808738   
    978000   0.94533757     0.0052401958   0.6515269     -0.28677924   
    979000   0.9849359      0.0059517899   0.67089177    -0.30671816   
    980000   0.97330847     0.0067737025   0.66036974    -0.30569924   
    981000   1.0408142      0.0057534367   0.738069      -0.29500364   
    982000   0.97718037     0.0064996808   0.66981778    -0.3000943    
    983000   0.99098453     0.0062763681   0.6847796     -0.29883397   
    984000   0.96862283     0.006042887    0.64385342    -0.31756478   
    985000   1.0153809      0.0054738361   0.69467662    -0.31315181   
    986000   1.0793774      0.0056645765   0.7771773     -0.29417172   
    987000   0.98675393     0.0056135756   0.69131108    -0.28810336   
    988000   1.0038339      0.0058911043   0.71103858    -0.28532882   
    989000   1.0969515      0.0068036031   0.80076877    -0.28802358   
    990000   1.0217033      0.0058334688   0.70831968    -0.30578414   
    991000   0.95526153     0.0047024868   0.6453063     -0.30284998   
    992000   0.97575318     0.0049893736   0.67861883    -0.28987669   
    993000   0.94544167     0.0055822959   0.66920604    -0.26920341   
    994000   0.92762349     0.0039066847   0.63836502    -0.28235879   
    995000   0.97061602     0.0052383684   0.69186647    -0.27153009   
    996000   1.0061168      0.0050660886   0.74119177    -0.25744147   
    997000   1.0100317      0.0068191955   0.7224086     -0.28011051   
    998000   1.0230668      0.0059872251   0.73595212    -0.27950512   
    999000   0.9712215      0.0068152789   0.70200807    -0.26198947   
   1000000   1.0099425      0.005154318    0.72656518    -0.27586534   
Loop time of 30.9278 on 1 procs for 1000000 steps with 605 atoms

Performance: 27936036.214 tau/day, 32333.375 timesteps/s
98.3% CPU use with 1 MPI tasks x no OpenMP threads

MPI task timing breakdown:
Section |  min time  |  avg time  |  max time  |%varavg| %total
---------------------------------------------------------------
Pair    | 2.2011     | 2.2011     | 2.2011     |   0.0 |  7.12
Bond    | 0.046314   | 0.046314   | 0.046314   |   0.0 |  0.15
Neigh   | 7.9238     | 7.9238     | 7.9238     |   0.0 | 25.62
Comm    | 1.436      | 1.436      | 1.436      |   0.0 |  4.64
Output  | 0.54859    | 0.54859    | 0.54859    |   0.0 |  1.77
Modify  | 16.662     | 16.662     | 16.662     |   0.0 | 53.87
Other   |            | 2.11       |            |       |  6.82

Nlocal:            605 ave         605 max         605 min
Histogram: 1 0 0 0 0 0 0 0 0 0
Nghost:             94 ave          94 max          94 min
Histogram: 1 0 0 0 0 0 0 0 0 0
Neighs:             72 ave          72 max          72 min
Histogram: 1 0 0 0 0 0 0 0 0 0

Total # of neighbors = 72
Ave neighs/atom = 0.11900826
Ave special neighs/atom = 0
Neighbor list builds = 218297
Dangerous builds = 0
Total wall time: 0:00:30
