fix fLANG all langevin 1.0 1.0 1.0 100
neigh_modify exclude molecule/intra all
fix rigidNVE linked_vesicle rigid/nve molecule
  1 rigid bodies with 5 atoms
fix NVE synapsin nve 1.0 1.0 1.0

    ##======================================##
    ## Output
    ##======================================##

thermo 1000
thermo_style custom step temp press etotal epair
thermo_modify flush yes
timestep 0.01

    ##======================================##
    ## Equilibration before output
    ##======================================##


    ##======================================##
    ## Run with output
    ##======================================##

fix enforce_2d all enforce2d
dump 2 all custom 1000 Results_eps_attr1_eps_rep1_eps_rep_weak0_range2_attr_with_repFalse_n_synapsin600_n_vesicles1/Movie_2d_eps_attr1_eps_rep1_eps_rep_weak0_range2_attr_with_repFalse_n_synapsin600_n_vesicles1.xyz id type mol x y z
run 1000000
Generated 0 of 3 mixed pair_coeff terms from geometric mixing rule
Neighbor list info ...
  update every 1 steps, delay 1 steps, check yes
  max neighbors/atom: 2000, page size: 100000
  master list distance cutoff = 11.52462
  ghost atom cutoff = 11.52462
  binsize = 5.7623102, bins = 55 55 1
  1 neighbor lists, perpetual/occasional/extra = 1 0 0
  (1) pair cosine/squared, perpetual
      attributes: half, newton on
      pair build: half/bin/newton
      stencil: half/bin/2d
      bin: standard
Per MPI rank memory allocation (min/avg/max) = 8.538 | 8.538 | 8.538 Mbytes
   Step          Temp          Press          TotEng         E_pair    
         0   0.99605013    -0.012465183    0.98864149     0            
      1000   0.97933204     0.0066724611   0.97040397    -0.0016437822 
      2000   1.0317396      0.0063271934   1.0246489      0.00058331238
      3000   1.0689063      0.0060233942   1.0602611     -0.0006946362 
      4000   0.97284245     0.0053734078   0.96445325    -0.0011531811 
      5000   0.99501179     0.0064104431   0.98595799    -0.0016528926 
      6000   1.0173339      0.0060692488   1.0098047      3.7699892e-05
      7000   0.94645278     0.0062163678   0.93941305     0            
      8000   1.0008945      0.0063876474   0.9945241      0.001074262  
      9000   0.95906065     0.0061670299   0.95104189    -0.00088525394
     10000   0.95689986     0.0054161582   0.94971883    -6.3586715e-05
     11000   1.0218092      0.0059120139   1.0121351     -0.0020737717 
     12000   1.0003955      0.0061509172   0.99263295    -0.00032156105
     13000   0.99778355     0.0063620234   0.98958709    -0.00077493457
     14000   0.96372503     0.0054935001   0.95655901     2.1848008e-06
     15000   1.0023648      0.0063573928   0.99392664    -0.00098253628
     16000   0.94264408     0.0071756193   0.93730227     0.0016695988 
     17000   1.0644354      0.0070415007   1.0549791     -0.0015390082 
     18000   0.91840261     0.0046474243   0.9072685     -0.0043030171 
     19000   0.951737       0.0050985843   0.94224099    -0.0024169711 
     20000   1.0414582      0.0060472132   1.0306028     -0.0031090252 
     21000   0.92964706     0.0051405081   0.92241406    -0.00031827224
     22000   0.95824345     0.0056683652   0.94957259    -0.0015434311 
     23000   0.99070853     0.0060124495   0.98124846    -0.0020911705 
     24000   0.94277875     0.0052446008   0.93406639    -0.0016999649 
     25000   1.0417803      0.0057192443   1.0323786     -0.0016528926 
     26000   0.94690368     0.0054437851   0.93986059     0            
     27000   1.0286439      0.0069995503   1.0209928      0            
     28000   0.99533698     0.0065158464   0.99129527     0.0033616246 
     29000   1.0206779      0.00602842     1.0132146      0.00012860268
     30000   1.0120159      0.0067167124   1.0030236     -0.0014649873 
     31000   1.0004879      0.0066550904   0.9929327     -0.00011353266
     32000   1.0683379      0.0065264516   1.06124        0.00084842768
     33000   0.98149837     0.0057996489   0.97283139    -0.0013665766 
     34000   1.0043067      0.0051266539   0.99494571    -0.0018909054 
     35000   1.0616889      0.0064650974   1.0523797     -0.0014122919 
     36000   0.94105369     0.0054785885   0.93405411     0            
     37000   1.007498       0.0070160701   0.99996435    -3.9838753e-05
     38000   0.99967194     0.0056111661   0.99223637     0            
     39000   1.0056372      0.0059959734   0.99815729     0            
     40000   1.037465       0.0063749267   1.0289709     -0.00077737724
     41000   1.0573676      0.0054873301   1.0489184     -0.00058446248
     42000   0.89644232     0.006709858    0.88852965    -0.0012449233 
     43000   0.96136215     0.0054247009   0.95416557    -4.5954126e-05
     44000   1.0580486      0.0060527764   1.0501789      0            
     45000   1.0806089      0.0066245975   1.0725713      0            
     46000   0.94729887     0.0057728072   0.93938358    -0.00086926225
     47000   0.97955137     0.0058400991   0.97106608    -0.001199376  
     48000   0.9805434      0.0061777749   0.97199733    -0.0012527715 
     49000   1.0212845      0.0064434422   1.0112874     -0.002400818  
     50000   0.93373811     0.0064072118   0.92519694    -0.0015960078 
     51000   1.0386514      0.0056989047   1.0279353     -0.0029905441 
     52000   0.92867667     0.0061652443   0.92016757    -0.0016015942 
     53000   1.0219859      0.0064413318   1.0165682      0.0021838316 
     54000   1.0201199      0.0070198056   1.0125322      0            
     55000   1.0032747      0.0061375969   0.99630881     0.00049650438
     56000   0.93853242     0.0046240735   0.93106142    -0.00049017877
     57000   1.0249808      0.0062300125   1.017357       0            
     58000   0.92702568     0.0058166315   0.92031454     0.00018409675
     59000   1.0368719      0.0067562186   1.0285102     -0.00064944464
     60000   0.96362477     0.0060703464   0.95583708    -0.00062022882
     61000   0.98007309     0.0058421285   0.97156765    -0.0012156425 
     62000   0.99076851     0.0062577125   0.98339915     0            
     63000   0.95279877     0.0051176697   0.94571184     0            
     64000   1.0340913      0.0065514643   1.0263997      0            
     65000   1.0196218      0.0051960869   1.0120378      0            
     66000   0.96206536     0.0063867291   0.9549095      0            
     67000   1.0572447      0.006498459    1.0493809      0            
     68000   0.94588104     0.0065765855   0.93884556     0            
     69000   0.96575526     0.0060674143   0.95857196     0            
     70000   0.98994193     0.0053208841   0.98258975     1.102371e-05 
     71000   0.97017929     0.0066921623   0.96691178     0.0039486918 
     72000   1.0336667      0.0063158276   1.025286      -0.00069228275
     73000   1.0466434      0.0066674995   1.0388584      0            
     74000   0.98322821     0.0055088475   0.97591495     0            
     75000   0.94246432     0.0065310366   0.93430177    -0.0011524845 
     76000   1.0154967      0.0056700594   1.0063162     -0.0016272569 
     77000   0.9435845      0.0055382437   0.93575463    -0.00081147587
     78000   1.0077634      0.006594419    0.99795755    -0.0023100484 
     79000   0.97578244     0.0064872279   0.9663161     -0.0022084555 
     80000   1.0398511      0.0054714545   1.0321166      0            
     81000   0.94574722     0.0060842954   0.93818694    -0.00052579948
     82000   0.97261758     0.0062224275   0.96538324     0            
     83000   0.96992122     0.006322426    0.96270693     0            
     84000   1.0613989      0.0076566192   1.0519833     -0.0015208571 
     85000   0.95894259     0.0059241241   0.95180996     0            
     86000   0.92642254     0.0057379815   0.9195872      5.5399957e-05
     87000   0.94944408     0.0054965118   0.94144618    -0.0009359137 
     88000   0.99988605     0.0059593882   0.99244888     0            
     89000   1.0060035      0.00552077     0.99852083     0            
     90000   0.98274494     0.0059845899   0.97252632    -0.0029089409 
     91000   1.0382418      0.0066004456   1.030433      -8.6351079e-05
     92000   1.0282888      0.0053691022   1.0205535     -8.6926928e-05
     93000   0.97362875     0.0074398821   0.96476986    -0.001617027  
     94000   1.0072103      0.0069883964   0.99822148    -0.0014971977 
     95000   1.0309213      0.0070167963   1.0220302     -0.0012231089 
     96000   0.9752877      0.0062511843   0.96539436    -0.0026391304 
     97000   1.0113144      0.0062967254   1.0037922      0            
     98000   1.0108406      0.0053791827   1.0017536     -0.0015683099 
     99000   1.010645       0.005600946    1.0031278      0            
    100000   1.0278179      0.006044646    1.0169532     -0.0032197784 
    101000   1.0305533      0.0049289913   1.0210842     -0.0018038263 
    102000   1.0510086      0.0075545068   1.0415383     -0.0016528926 
    103000   0.96818522     0.0064808427   0.95851474    -0.0024691023 
    104000   0.9741817      0.0065300619   0.96381207    -0.0031236434 
    105000   1.0124637      0.0059929404   1.0031463     -0.0017866206 
    106000   1.0096302      0.0066047621   1.000682      -0.0014386164 
    107000   0.91671273     0.0047607572   0.90850192    -0.0013922826 
    108000   0.94997123     0.0056514604   0.94084795    -0.0020573711 
    109000   0.97057529     0.0053226341   0.95974155    -0.0036145872 
    110000   1.0310518      0.0060121309   1.0235877      0.00020487013
    111000   1.0005841      0.0071085856   0.99314176     0            
    112000   0.97230351     0.0058311205   0.9650715      0            
    113000   1.0117012      0.0065458616   1.0041761      0            
    114000   0.98922198     0.0055096524   0.98030323    -0.0015609005 
    115000   1.0354373      0.006218012    1.027079      -0.0006566459 
    116000   1.0237126      0.0064655384   1.0161168      1.8610287e-05
    117000   1.0185474      0.0065156957   1.0092541     -0.0017173377 
    118000   0.98551081     0.0058756439   0.97818057     0            
    119000   0.99981355     0.0054271251   0.99272504     0.00034812729
    120000   1.0198898      0.0066089219   1.0099631     -0.0023408263 
    121000   1.0023258      0.005607882    0.99321758    -0.0016528926 
    122000   1.0707472      0.0071413573   1.0618049     -0.00097798591
    123000   1.0405822      0.0061927065   1.0314544     -0.0013878597 
    124000   0.96996373     0.0062993855   0.95878141    -0.0039677105 
    125000   0.96942954     0.0055288036   0.96122206    -0.00099684337
    126000   1.0377465      0.0060309276   1.0277774     -0.0022504173 
    127000   1.0036308      0.0057879299   0.99400677    -0.0021589749 
    128000   0.9775466      0.0058566597   0.97027559     0            
    129000   0.98191853     0.00568216     0.974615       0            
    130000   1.0108675      0.0066828725   1.000358      -0.002990627  
    131000   1.0864377      0.0060446959   1.0767039     -0.0016528926 
    132000   0.97834517     0.0058482857   0.97106822     0            
    133000   0.99131977     0.006531298    0.98394632     0            
    134000   1.0113925      0.0061243776   1.0037491     -0.00012059445
    135000   1.0976061      0.0068022346   1.0866158     -0.0028263285 
    136000   0.98502669     0.0060314119   0.97770005     0            
    137000   1.0289044      0.0064059494   1.0199232     -0.0013281677 
    138000   0.98919223     0.0054044942   0.98186666     3.205987e-05 
    139000   0.99059494     0.0059026776   0.98322688     0            
    140000   1.0385871      0.0065952631   1.030896       3.395059e-05 
    141000   0.98892682     0.0063925654   0.98157116     0            
    142000   1.0160156      0.0062311723   1.0079466     -0.0005118133 
    143000   1.0653342      0.0055473804   1.0580981      0.00068789957
    144000   0.99504952     0.0062419729   0.98660332    -0.0010450118 
    145000   0.99031975     0.0059485084   0.98349371     0.00053997487
    146000   0.93312338     0.0067645867   0.92618279     0            
    147000   0.97276792     0.0059605931   0.96553069    -1.7675185e-06
    148000   0.9443492      0.0054272842   0.94000701     0.0026818983 
    149000   1.0007401      0.0059683198   0.99329662     0            
    150000   0.94269171     0.0056762395   0.93567995     0            
    151000   1.0176441      0.0068704309   1.0102613      0.0001864571 
    152000   1.0702693      0.0060511509   1.0623086      0            
    153000   0.96496137     0.0065984739   0.95778397     0            
    154000   1.0090259      0.0058794592   1.0015208      0            
    155000   0.92661862     0.0056674566   0.91972642     0            
    156000   1.0278892      0.0068336283   1.0205538      0.00031000987
    157000   1.0330435      0.0055408571   1.0252252     -0.00013453379
    158000   1.0553292      0.0066587251   1.0458267     -0.0016528926 
    159000   0.92800412     0.0054678698   0.92051279    -0.00058881966
    160000   1.027939       0.0056515004   1.0200022     -0.00029096515
    161000   0.99667396     0.0057057012   0.98926068     0            
    162000   0.9546585      0.006189183    0.94633531    -0.0012224258 
    163000   0.95391176     0.0054030749   0.94528194    -0.0015346018 
    164000   1.0182885      0.0055492329   1.0096347     -0.0010797981 
    165000   0.96054723     0.0062854589   0.95338614    -1.6520747e-05
    166000   0.97475048     0.0062307942   0.96666441    -0.00083586337
    167000   0.9840857      0.006067269    0.97742952     0.00066346554
    168000   1.0814425      0.0069188196   1.0735923      0.00019360464
    169000   0.96312948     0.0055234397   0.95671155     0.00074584349
    170000   0.97119921     0.0064042583   0.96397542     0            
    171000   0.97168729     0.0060118274   0.96432963    -0.00013024087
    172000   1.0404539      0.0059012086   1.0327114     -3.5141765e-06
    173000   0.99812087     0.0067504976   0.99147256     0.00077572218
    174000   1.0188089      0.0064243264   1.0105434     -0.00068762303
    175000   0.92159433     0.0064280499   0.91305559    -0.0016838978 
    176000   1.0032835      0.0055956681   0.99252291    -0.0032981795 
    177000   1.0413029      0.0070974266   1.0305524     -0.00300523   
    178000   0.97221136     0.0060051776   0.9621165     -0.0028635333 
    179000   1.0259148      0.0054021274   1.0171383     -0.0011456507 
    180000   0.99685282     0.0067316737   0.98933742    -0.00010079315
    181000   1.0467485      0.0059917579   1.0356895     -0.0032732678 
    182000   1.0829689      0.0064136804   1.0740099     -0.00090385081
    183000   1.0130001      0.0063073938   1.0043822     -0.0010831523 
    184000   1.0160457      0.0063914551   1.0050852     -0.0034031969 
    185000   1.0488257      0.006582838    1.039587      -0.0014374948 
    186000   0.97531926     0.0065284113   0.96493064    -0.0031341812 
    187000   1.0195494      0.0068578523   1.0101048     -0.0018612635 
    188000   1.0592139      0.0067008222   1.0487722     -0.0025632017 
    189000   1.009871       0.0057548779   1.0022642     -9.5420968e-05
    190000   1.0126029      0.0057390655   1.0037509     -0.0013202816 
    191000   1.0002328      0.0064501679   0.9911742     -0.0016188445 
    192000   1.054274       0.0066545582   1.0442813     -0.0021509818 
    193000   1.0086179      0.0058417353   1.0008583     -0.00025750556
    194000   0.98551844     0.0054564372   0.97798201    -0.00020612852
    195000   0.99832369     0.0067162879   0.99322745     0.002329309  
    196000   1.0253346      0.0054422612   1.0177285      2.031851e-05 
    197000   1.0504008      0.0062342609   1.0421061     -0.00048183958
    198000   1.0625266      0.0056408375   1.0531664     -0.0014570459 
    199000   1.0329365      0.0064087064   1.0239392     -0.0013142342 
    200000   0.95351981     0.0050776457   0.94430649    -0.0021210163 
    201000   1.0007208      0.005885356    0.99323794    -3.9512319e-05
    202000   0.9988006      0.0053159987   0.9913715      0            
    203000   1.0205292      0.0059652737   1.01338        0.00044153676
    204000   1.014635       0.0057809048   1.0070881      0            
    205000   1.0454959      0.0060048314   1.0384057      0.00068622227
    206000   0.90996096     0.0059324893   0.90295709    -0.00023556355
    207000   1.0061502      0.0058777592   0.99866639     0            
    208000   0.99703553     0.0055740213   0.98963364     1.4075451e-05
    209000   1.0501748      0.0055661617   1.039499      -0.0028646567 
    210000   1.0082931      0.0064981919   1.0007934      0            
    211000   0.98837597     0.0061634661   0.98102441     0            
    212000   0.99924651     0.0051667977   0.9918141      0            
    213000   1.009621       0.0070397241   1.0021114      0            
    214000   1.0256525      0.0054817552   1.0180236      0            
    215000   1.0186809      0.0054550234   1.0096684     -0.0014355738 
    216000   1.0313315      0.0061964778   1.0220878     -0.0015726389 
    217000   0.97738324     0.0061883303   0.96944057    -0.00067288014
    218000   1.0540229      0.0061654036   1.0436154     -0.0025676353 
    219000   1.0747617      0.0067125984   1.0665197     -0.00024798556
    220000   0.90755491     0.0061438083   0.89933856    -0.0014659401 
    221000   1.0117171      0.0065063984   1.003224      -0.00096793991
    222000   1.0122031      0.0054267202   1.0035809     -0.0010933445 
    223000   0.98069159     0.0066626332   0.97339719     0            
    224000   0.98896054     0.005873231    0.98052929    -0.0010753488 
    225000   1.0096636      0.0068957081   1.0021537      0            
    226000   1.0267204      0.0066380958   1.0186043     -0.00047928328
    227000   0.92617248     0.005434087    0.91999661     0.00071302288
    228000   1.0079892      0.0064645927   0.99730512    -0.0031866696 
    229000   0.9779916      0.0063373917   0.9660613     -0.0046559875 
    230000   1.0380389      0.0057856516   1.0296182     -0.00069974314
    231000   0.98851803     0.0060610018   0.98163125     0.00046582654
    232000   1.0009945      0.0064908052   0.99335619    -0.00019289078
    233000   1.0489795      0.0067799213   1.0411772      0            
    234000   1.0289751      0.006636806    1.0196982     -0.0016234171 
    235000   1.0439816      0.0057762446   1.0351883     -0.0010281714 
    236000   1.0483128      0.0061593664   1.0397        -0.00081540526
    237000   0.98668467     0.0058794542   0.97786298    -0.0014827111 
    238000   1.0000803      0.004929005    0.9926417      0            
    239000   1.0072994      0.0056932269   0.99980707     0            
    240000   0.97243216     0.0053395192   0.96333438    -0.0018648124 
    241000   0.99579922     0.0051206332   0.98671575    -0.0016766909 
    242000   0.9457403      0.0055968063   0.93870587     0            
    243000   1.0312617      0.0058974448   1.0235911      0            
    244000   0.96791964     0.0054229683   0.95747365    -0.003246584  
    245000   0.95379326     0.0059904949   0.94555708    -0.0011418469 
    246000   1.0327674      0.0061116873   1.0229054     -0.00218028   
    247000   0.99357795     0.0051487522   0.9861877      0            
    248000   0.98121022     0.0055985575   0.97391194    -2.3493408e-08
    249000   0.95366622     0.0050007275   0.94607804    -0.00049480394
    250000   1.05393        0.0067885485   1.0460909      0            
    251000   1.0011579      0.0062855389   0.99560672     0.0018954112 
    252000   0.94752308     0.0058675122   0.93847879    -0.0019965991 
    253000   1.0131056      0.0061985316   1.0068147      0.0012445761 
    254000   0.99509087     0.0049337278   0.98768698    -2.3873711e-06
    255000   1.0590036      0.0066844698   1.0512221      9.53056e-05  
    256000   1.0057974      0.006246967    0.99955023     0.0012339974 
    257000   0.96376875     0.0058627406   0.95662024     2.0025838e-05
    258000   1.0364301      0.006466138    1.0297213      0.0010001692 
    259000   1.0335523      0.0060705203   1.0258647      0            
    260000   0.93128964     0.006177803    0.92508931     0.00072660922
    261000   1.0341654      0.0061086075   1.0264723     -9.7614933e-07
    262000   0.94962767     0.0062820641   0.9425688      4.475033e-06 
    263000   1.0358171      0.0067776343   1.0281127      0            
    264000   0.94356912     0.005831422    0.93655084     0            
    265000   0.99393255     0.0057377664   0.98656994     3.0279474e-05
    266000   0.99603157     0.0061169138   0.9886485      2.5432811e-05
    267000   0.9812227      0.0052685509   0.97392435     0            
    268000   1.0364922      0.0059010702   1.0287828      0            
    269000   1.0385239      0.0054225406   1.0294515     -0.0013479087 
    270000   1.0323693      0.0071535459   1.0253835      0.00069292242
    271000   1.0239334      0.0054935009   1.0166791      0.00036173555
    272000   0.99449287     0.005285735    0.98709582     0            
    273000   1.0175484      0.0061181042   1.0099799      0            
    274000   1.0117908      0.0063138437   1.0058992      0.0016341853 
    275000   0.93771009     0.0052936925   0.93073539     0            
    276000   1.0105996      0.0059965292   1.0014828     -0.0016000337 
    277000   1.0492793      0.006799636    1.0414747      0            
    278000   0.96165471     0.0056498519   0.95450191     0            
    279000   0.97303739     0.0067288988   0.96491324    -0.00088668217
    280000   1.1146227      0.0067050441   1.1050856     -0.0012464842 
    281000   1.0379744      0.0065643062   1.0304324      0.0001784723 
    282000   1.0591206      0.0062641474   1.050917      -0.00032593563
    283000   0.9795781      0.0061199517   0.97229198     0            
    284000   0.95275994     0.0059877241   0.94567329     0            
    285000   0.9884707      0.0053434749   0.98101449    -0.00010394811
    286000   0.93345069     0.0062657225   0.92518       -0.001327672  
    287000   0.99134219     0.0064122887   0.98537783     0.0014092588 
    288000   0.93555378     0.006050964    0.92859511     0            
    289000   1.0207571      0.0064014431   1.0131647      0            
    290000   1.0257265      0.0066359567   1.0180972      0            
    291000   1.0224453      0.0059251354   1.0148403      0            
    292000   1.0942842      0.0077800742   1.0861449      0            
    293000   0.9624323      0.0058866309   0.95527371     0            
    294000   1.0052198      0.0053201811   0.99743185    -0.00031111734
    295000   0.99106897     0.0056180178   0.9839359      0.00023851716
    296000   0.96449182     0.006105053    0.95731792     0            
    297000   0.94566502     0.0064955686   0.94011307     0.0014819176 
    298000   1.0602812      0.0063493018   1.0523948      0            
    299000   1.0604261      0.005979515    1.0515599     -0.00097874951
    300000   0.96146396     0.0056051431   0.95431257     0            
    301000   1.025163       0.0059777938   1.0175379      0            
    302000   1.0379242      0.0066180312   1.0302041      0            
    303000   0.93937738     0.0055068221   0.93239028     0            
    304000   0.9671961      0.0066123667   0.9636951      0.0036930203 
    305000   0.95244602     0.0053024715   0.9454052      4.3483758e-05
    306000   0.92248266     0.0057750007   0.91562122     0            
    307000   0.96894378     0.0062364582   0.96173676     0            
    308000   0.97635766     0.0058154915   0.96909549     0            
    309000   0.96151993     0.005084128    0.95442046     5.2329353e-05
    310000   0.9805018      0.0053245628   0.97320881     0            
    311000   0.96660098     0.0068289931   0.95941138     0            
    312000   0.98363268     0.0057801208   0.97480638    -0.0015100272 
    313000   0.94755915     0.0056591088   0.94051119     0            
    314000   1.1176344      0.0069145487   1.1080497     -0.001271812  
    315000   1.0601286      0.0059434653   1.0579331      0.0056897386 
    316000   1.0353374      0.0057194467   1.0276365      0            
    317000   0.9991054      0.0059465383   0.99167403     0            
    318000   1.0015966      0.0063564594   0.99414673     0            
    319000   0.96117074     0.0056744837   0.95259272    -0.0014288135 
    320000   0.97560666     0.0054014335   0.96835008     0            
    321000   1.0673558      0.0068014215   1.0594354      1.8533299e-05
    322000   0.97601494     0.0052749537   0.96875532     0            
    323000   0.98719128     0.006002379    0.97954625    -0.00030227935
    324000   1.0023117      0.0050589417   0.99333138    -0.0015250757 
    325000   0.96174198     0.0056404867   0.95612165     0.0015331239 
    326000   1.0440176      0.0057099341   1.036052      -0.0002001741 
    327000   0.95734434     0.0063814361   0.9502236      0            
    328000   0.99910324     0.0061345737   0.99173106     5.917053e-05 
    329000   1.0352877      0.0067515231   1.0267884     -0.00079888544
    330000   1.0230129      0.0068371034   1.0153617     -4.1980959e-05
    331000   1.0035098      0.0058769844   0.99452877    -0.0015168834 
    332000   1.0004222      0.0066261143   0.992981       0            
    333000   1.0814207      0.0058550022   1.0733771      0            
    334000   1.0421345      0.0057174702   1.0343831      0            
    335000   0.98464531     0.0064185883   0.97699882    -0.00032268556
    336000   0.94880484     0.0057494409   0.94174762     0            
    337000   0.95797279     0.0051862735   0.95084738     0            
    338000   1.0012302      0.0061448971   0.99378302     0            
    339000   0.992255       0.0054271437   0.98487459     0            
    340000   1.0240495      0.0066536677   1.0164326      0            
    341000   1.0615234      0.0063557773   1.0536278      0            
    342000   0.97627934     0.0059367211   0.96901776     0            
    343000   0.97094712     0.0056922692   0.9637252      0            
    344000   1.0181771      0.006460351    1.0106038      0            
    345000   0.99870692     0.0061949148   0.99229618     0.0010176586 
    346000   1.0877245      0.005520306    1.0795544     -7.955765e-05 
    347000   0.94124165     0.0057570138   0.93424068     0            
    348000   1.0062497      0.0051479191   0.99876521     0            
    349000   0.98875994     0.0060058587   0.98148379     7.8255913e-05
    350000   1.0327863      0.0063534576   1.0251045      0            
    351000   1.0030174      0.0066060741   0.99419654    -0.0013604157 
    352000   0.96498289     0.0069005106   0.95691032    -0.00089500973
    353000   0.97071327     0.0065566182   0.96349309     0            
    354000   1.0761698      0.0063771034   1.06516       -0.0030052226 
    355000   1.017565       0.0063327396   1.0093931     -0.00060320634
    356000   1.0334308      0.0065668507   1.0257441      0            
    357000   0.9735349      0.0056927266   0.96467984    -0.001613901  
    358000   0.98905424     0.00561868     0.98074041    -0.00095722585
    359000   0.97523594     0.0058365859   0.96469764    -0.0032844828 
    360000   0.97890521     0.0068502855   0.97047954    -0.0011445502 
    361000   0.96977735     0.006485131    0.96248008    -8.4048951e-05
    362000   0.96645905     0.0063917283   0.95570529    -0.0035652239 
    363000   0.97675928     0.0053601103   0.96899175    -0.00050237771
    364000   0.95169032     0.0054203325   0.94293776    -0.0016738736 
    365000   1.0589871      0.0069602117   1.0510565     -5.3821522e-05
    366000   1.0059227      0.0061383994   0.99844058     0            
    367000   1.0279177      0.0059032384   1.0199988     -0.00027322788
    368000   0.94825501     0.0065492435   0.93955706    -0.0016448106 
    369000   1.0708214      0.0060070884   1.0628566      0            
    370000   1.0449756      0.0049839931   1.0372031      0            
    371000   1.0205425      0.0058433832   1.0129517      0            
    372000   0.98072783     0.0061142778   0.97343316     0            
    373000   0.99164672     0.0057094554   0.98427084     0            
    374000   0.89465318     0.0056667028   0.88799873     0            
    375000   1.0196666      0.00696369     1.0120823      0            
    376000   0.99091521     0.0073006473   0.98183142    -0.0017133481 
    377000   0.97943725     0.0063665605   0.97166079    -0.00049139283
    378000   1.0339789      0.0058844188   1.0239815     -0.0023066752 
    379000   0.99359807     0.0069816024   0.98665543     0.00044776324
    380000   1.0767328      0.0061338563   1.068724       0            
    381000   0.98334916     0.00611756     0.97463682    -0.0013981726 
    382000   1.0331468      0.006497898    1.0254136     -4.8615273e-05
    383000   0.9765467      0.0067598635   0.96928313     0            
    384000   0.99292422     0.0067208523   0.98408721    -0.0014516236 
    385000   1.0670899      0.0063534316   1.0591731      2.0220419e-05
    386000   1.0132458      0.0065050647   1.0041364     -0.0015728746 
    387000   0.95162679     0.0056860404   0.94377854    -0.00077003569
    388000   1.026697       0.005948775    1.0190604      0            
    389000   1.0856767      0.0069072954   1.0776014      0            
    390000   0.94551484     0.0052332369   0.93793258    -0.00054951202
    391000   0.98327625     0.0062974542   0.97504637    -0.00091625593
    392000   0.98472789     0.0057186974   0.9756664     -0.0017370669 
    393000   1.0577033      0.0068272796   1.0487714     -0.0010646921 
    394000   0.94198342     0.0060167331   0.93497693     0            
    395000   1.0217813      0.0053295824   1.0112103     -0.0029709096 
    396000   1.0548944      0.0056900665   1.0491985      0.0021504289 
    397000   0.96276833     0.0061233538   0.95299133    -0.0026159176 
    398000   1.00615        0.0059296483   0.99552333    -0.0031429159 
    399000   1.0104751      0.0063344343   0.99859445    -0.004364765  
    400000   1.0057259      0.0059865279   0.99679598    -0.0014493625 
    401000   1.0793463      0.0065068108   1.0685396     -0.0027785022 
    402000   1.0191061      0.0058705858   1.0102252     -0.001300771  
    403000   0.98253403     0.00629174     0.97316339    -0.0020625312 
    404000   0.91645722     0.0059558862   0.90822938    -0.0014112128 
    405000   0.98710937     0.0057841135   0.97665173    -0.0031155105 
    406000   0.92421197     0.0052359619   0.91596314    -0.0013745267 
    407000   0.98940202     0.0063602605   0.97972223    -0.0023206021 
    408000   0.96292262     0.0060543291   0.95433493    -0.0014254503 
    409000   1.0827998      0.0063700172   1.0747459      0            
    410000   0.99992185     0.0055644095   0.99248442     0            
    411000   1.0280601      0.0054418458   1.0204137      3.6255609e-07
    412000   1.0216784      0.0074489994   1.0139652     -0.0001139403 
    413000   0.95065055     0.0059651633   0.94325836    -0.00032123628
    414000   1.0228616      0.0076334712   1.0157659      0.00051239458
    415000   0.99422331     0.006777859    0.98477536    -0.0020528954 
    416000   0.94842555     0.0050455258   0.94114179    -0.00022935486
    417000   1.025415       0.0063503323   1.0177957      7.8000446e-06
    418000   1.0022151      0.00644042     0.99476062     0            
    419000   0.99941523     0.0061357751   0.990919      -0.0010625649 
    420000   0.99572343     0.0061309591   0.98824018    -7.7035103e-05
    421000   1.0111804      0.0066376546   1.0037869      0.00012760084
    422000   1.0641631      0.0067451186   1.054876      -0.0013717542 
    423000   1.0548133      0.0073145003   1.0453146     -0.0016528926 
    424000   1.0228002      0.0071684671   1.0141399     -0.0010527652 
    425000   1.0010326      0.0061785376   0.99668088     0.0030939884 
    426000   0.97431902     0.0056811618   0.96707202     0            
    427000   1.0199155      0.006565711    1.0120343     -0.000295074  
    428000   0.97990818     0.0061700459   0.9717662     -0.00085340428
    429000   0.9935168      0.0053558336   0.98612701     0            
    430000   0.9571137      0.0062560996   0.95054256     0.00054788768
    431000   0.94655126     0.0051811982   0.93642812    -0.0030826809 
    432000   1.0641631      0.0061077123   1.0551924     -0.0010554673 
    433000   1.0635799      0.0061721713   1.055669       0            
    434000   1.0322302      0.0054834213   1.0243795     -0.00017301996
    435000   0.97397206     0.0051743101   0.96676167     3.4034203e-05
    436000   0.99759344     0.0047675116   0.99017332     0            
    437000   0.94128108     0.0059334578   0.93377924    -0.00050057574
    438000   0.955487       0.00538297     0.94838007     0            
    439000   1.0121391      0.0064518582   1.0046108      0            
    440000   0.94357434     0.0056669333   0.9349211     -0.001634922  
    441000   0.9639175      0.0055260868   0.95674786     0            
    442000   1.0649196      0.0059995124   1.0570261      2.7328044e-05
    443000   1.0082091      0.0055166303   1.0007101      0            
    444000   0.97777393     0.0059912132   0.96811053    -0.0023906972 
    445000   1.0997571      0.007155801    1.0902705     -0.0013066268 
    446000   0.95023494     0.0062341651   0.94294394    -0.000223137  
    447000   0.96417015     0.0064354379   0.9555239     -0.0014747345 
    448000   1.0148693      0.0063006822   1.0062557     -0.0010649451 
    449000   1.0419582      0.0066243876   1.034097      -0.00011110323
    450000   0.96247631     0.0054117435   0.95442782    -0.00088956635
    451000   0.99682528     0.0057562593   0.98902165    -0.00038923215
    452000   0.94809823     0.0067553445   0.94121431     0.00016804469
    453000   0.97952264     0.0061220445   0.97094973    -0.0012872066 
    454000   0.98846006     0.0067852066   0.97817603    -0.0029318447 
    455000   0.98785419     0.0064297448   0.98006822    -0.00043828736
    456000   0.98630172     0.0060359945   0.97718909    -0.001776501  
    457000   1.0237233      0.0063814043   1.0161088      0            
    458000   0.95014859     0.0057406366   0.94290507    -0.00017629908
    459000   0.97541617     0.0061074903   0.96697213    -0.0011888783 
    460000   1.0452686      0.0063915564   1.0365351     -0.00095878127
    461000   1.1216711      0.0074891282   1.1132824     -4.5702479e-05
    462000   1.097235       0.0064513597   1.0889674     -0.00010631698
    463000   1.0249954      0.0059132612   1.016085      -0.0012864868 
    464000   1.0316953      0.0061500774   1.0230659     -0.0009557062 
    465000   1.057003       0.0069649457   1.0493648      0.00022378074
    466000   0.9521122      0.006410254    0.94503038     0            
    467000   0.93309264     0.0062671948   0.92615228     0            
    468000   1.0003775      0.0056930203   0.99293671     3.1586356e-08
    469000   0.984025       0.0051103537   0.97599248    -0.0007133198 
    470000   0.98206289     0.0056728066   0.9707111     -0.0040471934 
    471000   1.0035442      0.0056039618   0.99504902    -0.0010308204 
    472000   1.0168625      0.0060960922   1.0072369     -0.0020620653 
    473000   1.0007525      0.0060582178   0.98983968    -0.0034692223 
    474000   1.0499223      0.0076314083   1.041397      -0.00071600209
    475000   1.0398383      0.0058796558   1.0320926     -1.1410772e-05
    476000   1.0308354      0.0057261137   1.0224562     -0.00071175468
    477000   1.0138421      0.0062424338   1.0062764     -2.4726493e-05
    478000   1.0259149      0.0056676358   1.0173763     -0.00090788456
    479000   0.91615011     0.0048052634   0.90934851     1.2738402e-05
    480000   1.0061606      0.0062098911   0.99878416     0.00010736397
    481000   0.9726067      0.0055019369   0.96527568    -9.6751143e-05
    482000   1.0166422      0.0062588874   1.0090804      0            
    483000   0.99782082     0.0055978071   0.99039901     0            
    484000   0.9217376      0.0056773548   0.91529157     0.00040987539
    485000   1.0339037      0.0063508282   1.0262136      0            
    486000   0.96152632     0.0061426572   0.95387058    -0.00050388885
    487000   0.9052612      0.0057760495   0.89703879    -0.0014890592 
    488000   0.97526761     0.0068146853   0.96752918    -0.00048437657
    489000   0.99896643     0.0058515347   0.99058057    -0.00095553463
    490000   0.95249278     0.0060523602   0.94540812     0            
    491000   1.0124123      0.0065329101   1.0046933     -0.00018867118
    492000   0.96890285     0.0058477511   0.96187798     0.00018184915
    493000   1.0287234      0.0058743676   1.0210718      0            
    494000   0.96687671     0.0064506219   0.95996063     0.00027556427
    495000   1.0069645      0.0062307536   0.99947472     0            
    496000   1.0099428      0.0068838494   1.0024308      0            
    497000   0.94559038     0.0054384592   0.93855707     0            
    498000   1.0338769      0.0048408198   1.0261869      0            
    499000   0.97787794     0.0054233939   0.97060447     0            
    500000   1.0191018      0.0067084396   1.0114515     -7.0150674e-05
    501000   1.0697091      0.006322963    1.0603587     -0.0013939002 
    502000   1.026433       0.0057633249   1.0175615     -0.0012369492 
    503000   0.99590351     0.0063253876   0.98755999    -0.00093596984
    504000   0.93433632     0.0059737684   0.92738671     0            
    505000   1.0076628      0.0064534704   0.99914066    -0.0010271035 
    506000   0.94528569     0.0065518073   0.93668542    -0.0015692212 
    507000   1.0170974      0.0063075164   1.0081085     -0.0014237191 
    508000   0.95223698     0.0059312112   0.94404808    -0.0011061464 
    509000   0.97716983     0.0061331419   0.97088577     0.00098414534
    510000   0.98496488     0.005874985    0.97681095    -0.00082774354
    511000   0.99079753     0.0065047903   0.98346869     4.0733888e-05
    512000   0.98141945     0.0065235729   0.97419512     7.5484735e-05
    513000   0.97347886     0.0061964412   0.96586356    -0.00037454528
    514000   0.99819181     0.005722994    0.98962065    -0.0011465977 
    515000   1.1217456      0.0070684364   1.1119848     -0.0014171906 
    516000   1.0303659      0.0062646503   1.0216088     -0.0010933164 
    517000   1.0310716      0.0058939279   1.0227419     -0.000660559  
    518000   0.94823556     0.0054402968   0.93957692    -0.0016056501 
    519000   1.0326658      0.0053049494   1.0249848      0            
    520000   1.0032683      0.0057288161   0.99353675    -0.0022691979 
    521000   0.97074423     0.0059871323   0.96152535    -0.001998477  
    522000   1.0230603      0.0064262487   1.0154726      2.1870545e-05
    523000   0.99003753     0.006590291    0.98194382    -0.00072979002
    524000   0.98390791     0.0062088588   0.97626833    -0.0003212588 
    525000   0.9687405      0.0054434571   0.95956118    -0.0019738081 
    526000   0.99421393     0.0066657458   0.98681895     0            
    527000   0.98174261     0.0065741828   0.97484705     0.00040666367
    528000   0.95734447     0.0064084714   0.94905871    -0.0011650152 
    529000   0.97972344     0.0052582361   0.97192515    -0.00051108535
    530000   1.0155267      0.0058824328   1.0047897     -0.0031835521 
    531000   1.0448829      0.0060430046   1.0361023     -0.0010087206 
    532000   1.0091931      0.0058516458   1.0003004     -0.0013862714 
    533000   0.95947056     0.00512274     0.95068111    -0.0016528926 
    534000   0.93886179     0.0059388358   0.93057612    -0.0013023954 
    535000   0.97489328     0.0061667639   0.96400838    -0.0036336316 
    536000   0.92646519     0.0063461469   0.91706294    -0.0025111904 
    537000   1.0220051      0.0063472373   1.0127383     -0.0016651417 
    538000   1.0538587      0.0068922933   1.0483371      0.0023170112 
    539000   1.0091688      0.0054663819   1.0010016     -0.00066095378
    540000   0.96688436     0.0069057804   0.95855933    -0.001133331  
    541000   1.002256       0.0071741366   0.99480116     0            
    542000   0.93412301     0.005590597    0.92619998    -0.00097501053
    543000   1.0431623      0.006501094    1.0342105     -0.0011928019 
    544000   1.0008294      0.0061041864   0.99179384    -0.0015913244 
    545000   1.0208913      0.0078510982   1.0117122     -0.0015856139 
    546000   0.95240264     0.006264003    0.94360879    -0.0017098546 
    547000   1.1122816      0.0056940263   1.1032563     -0.00075218314
    548000   1.1050877      0.0064623258   1.0960249     -0.0008432198 
    549000   0.94784215     0.0055249688   0.93949413    -0.0012979623 
    550000   1.0144649      0.0058629152   1.0078979      0.0009786476 
    551000   1.0263296      0.0057144962   1.0182827     -0.00041305339
    552000   0.99281113     0.0070660037   0.98557438     0.00014779792
    553000   0.9615132      0.0059677767   0.95156012    -0.0028013284 
    554000   0.97524883     0.0051476408   0.96695842    -0.0010364948 
    555000   1.0665461      0.0056624049   1.0572314     -0.001381659  
    556000   0.99725176     0.0061196243   0.990981       0.0011468163 
    557000   1.013591       0.0065689736   1.005422      -0.00062988314
    558000   0.97466724     0.0052593069   0.96691957    -0.00049808187
    559000   0.97456069     0.0068182013   0.96532446    -0.0019874323 
    560000   1.0149883      0.0059672692   1.0048257     -0.0026131448 
    561000   0.9369097      0.0055944023   0.92838394    -0.0015570107 
    562000   0.9640429      0.0067408052   0.95687234     0            
    563000   1.0223939      0.0050135409   1.017876       0.003086736  
    564000   0.97340428     0.0064024544   0.96616408     0            
    565000   1.0506943      0.0075340659   1.0451739      0.0022947356 
    566000   0.99535624     0.0059086012   0.98680792    -0.0011448426 
    567000   1.0523249      0.0060878501   1.0420641     -0.0024336287 
    568000   1.0437384      0.006990753    1.0334865     -0.0024885697 
    569000   0.99387437     0.0059572719   0.98648192     0            
    570000   0.9401327      0.0052906713   0.92944175    -0.0036982306 
    571000   0.95005958     0.0053980189   0.9389192     -0.0040738196 
    572000   1.0081119      0.00689991     0.99914751    -0.0014660352 
    573000   0.99718235     0.0055936145   0.98900625    -0.00075904298
    574000   1.0375595      0.0073068317   1.0306706      0.00082846334
    575000   0.96780433     0.0061877929   0.9605209     -8.4889558e-05
    576000   1.0398658      0.0069183075   1.031211      -0.00092028496
    577000   0.94178061     0.0067444537   0.93408714    -0.0006884859 
    578000   1.0351881      0.0053588956   1.0256453     -0.0018429671 
    579000   1.0296729      0.0062474063   1.0206139     -0.0014003002 
    580000   1.0203753      0.0063479478   1.0127858      0            
    581000   0.96967316     0.0056552094   0.96122702    -0.0012336992 
    582000   1.0226352      0.0067368152   1.0165023      0.0014735232 
    583000   0.98520177     0.0058149721   0.97607053    -0.0018032962 
    584000   0.92791572     0.0052805239   0.92125464     0.00024077102
    585000   1.0611984      0.0067207856   1.0527312     -0.0005739283 
    586000   1.0067001      0.0065258663   0.99778235    -0.0014299003 
    587000   0.94672675     0.0045176696   0.93842454    -0.0012604415 
    588000   0.93453013     0.005667546    0.92750058    -7.8504461e-05
    589000   0.96320388     0.0061713316   0.95603839    -1.1665969e-06
    590000   1.0571964      0.0063879996   1.0487398     -0.00059308767
    591000   1.0298309      0.0061190401   1.022171       0            
    592000   0.99411326     0.0072752682   0.98699021     0.0002711819 
    593000   0.97618458     0.0066176193   0.96740738    -0.001516316  
    594000   1.0083741      0.0062353656   0.99951108    -0.0013626925 
    595000   1.018535       0.0064955508   1.0096166     -0.0013425155 
    596000   1.0632038      0.0062466909   1.0553706      7.4927883e-05
    597000   0.98925548     0.0061989691   0.98189739     0            
    598000   0.96674528     0.0059701165   0.96300552     0.0034509085 
    599000   1.001401       0.0054231017   0.99148342    -0.0024691155 
    600000   1.0069409      0.0056331046   0.994416      -0.0050352139 
    601000   0.99048687     0.0061598531   0.98152065    -0.0015989573 
    602000   1.0025555      0.006759981    0.99227134    -0.0028271613 
    603000   1.030035       0.0066667111   1.0198644     -0.0025092154 
    604000   0.95489169     0.0056209916   0.94615845    -0.0016307363 
    605000   0.97823247     0.0059683042   0.96874389    -0.0022124703 
    606000   1.0449451      0.0064469086   1.0368744     -0.00029844694
    607000   0.97915279     0.0059135327   0.97099264    -0.00087719772
    608000   1.0144209      0.0057609287   1.0052358     -0.0016398176 
    609000   0.97202097     0.0063739193   0.96479106     0            
    610000   0.98784513     0.0056392568   0.98135929     0.00086177453
    611000   1.0137031      0.0069246544   1.0045102     -0.0016528926 
    612000   0.96982114     0.0055174828   0.96117278    -0.0014348157 
    613000   1.0363078      0.0068122564   1.0270016     -0.0015981622 
    614000   1.0284169      0.0060037454   1.0191146     -0.0016528926 
    615000   1.0143101      0.0057728506   1.0064383     -0.00032740368
    616000   0.97390684     0.0059357204   0.96686017     0.00019727141
    617000   0.98324371     0.0061492747   0.97637639     0.00044605867
    618000   0.92082109     0.0055662629   0.91397201     0            
    619000   0.957691       0.006555495    0.95056768     0            
    620000   0.96917821     0.0056450128   0.96196945     0            
    621000   1.0161869      0.0063098016   1.0086285      0            
    622000   0.98291158     0.0057525546   0.97408531    -0.0015153532 
    623000   1.0383964      0.006119954    1.0295738     -0.0010989935 
    624000   0.95814303     0.0058163235   0.95007644    -0.00093990828
    625000   0.90597831     0.0051093587   0.89629476    -0.0029448711 
    626000   0.9993565      0.0059219056   0.99182748    -9.5789853e-05
    627000   1.0821137      0.0062701698   1.0722771     -0.0017878384 
    628000   0.98499581     0.0057128412   0.97749284    -0.00017656252
    629000   0.9642318      0.0056060454   0.95705982     0            
    630000   0.99429495     0.0068163395   0.98625986    -0.00063951299
    631000   0.96906154     0.0052968908   0.96185365     0            
    632000   0.95987733     0.0061104548   0.95273775     0            
    633000   0.9936175      0.0061589671   0.98622696     0            
    634000   1.0589236      0.0062205383   1.0510473      0            
    635000   1.005597       0.0059329633   0.99811734     0            
    636000   0.97375904     0.0056767719   0.96651774     1.5290513e-06
    637000   0.95397745     0.0072351205   0.94688175     0            
    638000   1.0196129      0.0062351552   1.0103761     -0.0016528926 
    639000   1.0275091      0.0064523031   1.0187842     -0.0010822828 
    640000   0.94291762     0.0051802552   0.93455679    -0.0013473968 
    641000   0.99129747     0.0061064167   0.98259795    -0.0013262352 
    642000   0.99047848     0.0071087003   0.98092161    -0.0021896776 
    643000   0.97706859     0.0055243969   0.96948782    -0.00031332336
    644000   1.0132443      0.0063845553   1.0044211     -0.0012866711 
    645000   0.97868665     0.0061422191   0.9695366     -0.001870565  
    646000   1.0050381      0.0062690529   0.99814005     0.00057743649
    647000   0.98226477     0.0057322      0.97333989    -0.0016187769 
    648000   0.98545134     0.0067470017   0.97679122    -0.0013303185 
    649000   1.0124494      0.0071694234   1.004939       2.0221742e-05
    650000   0.98240571     0.0060673221   0.97509856     0            
    651000   0.99097307     0.0069804089   0.98752817     0.0039259752 
    652000   1.0309129      0.0060148606   1.0199068     -0.0033381192 
    653000   1.0030844      0.0060131291   0.9926041     -0.0030193489 
    654000   1.0091169      0.008000633    1.000674      -0.00093709443
    655000   0.92353351     0.0046349769   0.91502457    -0.0016396908 
    656000   0.9586561      0.0058379921   0.9515256      0            
    657000   0.98161934     0.0062029797   0.97431804     0            
    658000   1.0384757      0.0067009647   1.0290986     -0.0016528926 
    659000   1.0096838      0.0058824496   1.0021738      0            
    660000   0.99840364     0.0051955712   0.99091315    -6.4355516e-05
    661000   1.0090499      0.0054197732   1.0015446      0            
    662000   0.93492498     0.0049490296   0.92620564    -0.0017653504 
    663000   1.0177134      0.0059459339   1.0084419     -0.001701719  
    664000   1.0076485      0.0057908166   0.99850072    -0.0016528926 
    665000   1.0387444      0.0069363281   1.0301258     -0.00089243322
    666000   0.92838828     0.0063529748   0.92264608     0.0011631696 
    667000   1.0628167      0.0062688936   1.0526334     -0.0022780103 
    668000   0.9509326      0.0055902092   0.94150794    -0.0023516053 
    669000   1.0318516      0.0062735354   1.0230133     -0.0011633734 
    670000   0.9993248      0.0057709174   0.98798632    -0.0039054801 
    671000   0.99060634     0.0069047246   0.98151517    -0.0017230224 
    672000   1.0429224      0.0064167233   1.0343843     -0.00078078396
    673000   1.0398134      0.0053474064   1.0285529     -0.0035263614 
    674000   0.98630242     0.0059778146   0.97896628     0            
    675000   1.0175192      0.0053301943   1.0110149      0.0010640182 
    676000   0.94094087     0.0048407242   0.93394214     0            
    677000   1.0024589      0.0056939322   0.99486416    -0.00013838333
    678000   1.0113492      0.0058119002   1.005311       0.001484251  
    679000   0.99938614     0.0063770154   0.99195269     0            
    680000   1.0181341      0.0065282556   1.0105612      0            
    681000   0.96629008     0.0062677759   0.95742112    -0.0016816847 
    682000   0.89587055     0.0054786938   0.88754564    -0.0016614126 
    683000   0.9993884      0.0056453202   0.99044365    -0.0015112753 
    684000   1.0370523      0.006049578    1.0294859      0.00014715786
    685000   0.96668186     0.0052588814   0.95807417    -0.0014174922 
    686000   0.93574248     0.0052957952   0.92880518     2.2774279e-05
    687000   0.96543307     0.006076991    0.95611295    -0.0021392111 
    688000   1.0154924      0.0056434221   1.0080509      0.00011171965
    689000   0.99318266     0.0058123239   0.98579531    -4.3006959e-08
    690000   1.016538       0.0060643736   1.0066266     -0.0023503626 
    691000   0.96229603     0.0064218458   0.9521719     -0.0029665588 
    692000   1.0085571      0.0059078573   0.9997007     -0.0013547499 
    693000   1.0139762      0.0069875236   1.0039447     -0.0024894998 
    694000   0.98759963     0.0071105452   0.98025385     0            
    695000   0.92037169     0.0051709164   0.91187306    -0.0016528926 
    696000   1.0427428      0.0063296497   1.0349861     -8.5719491e-07
    697000   0.95035063     0.0064989494   0.94349422     0.00021231721
    698000   0.94417151     0.0058017316   0.93712516    -2.358503e-05 
    699000   1.0010409      0.0069162418   0.99357932    -1.5781529e-05
    700000   0.99657706     0.0066495212   0.9877585     -0.0014060012 
    701000   1.0314294      0.0061526061   1.0237576      0            
    702000   1.0706486      0.0066041859   1.0622621     -0.00042297844
    703000   1.0763283      0.0055988864   1.0682949     -2.7660388e-05
    704000   1.0328132      0.0071321748   1.0223621     -0.0027689703 
    705000   1.0274521      0.0063463692   1.0186693     -0.0011405676 
    706000   1.0150375      0.0063379877   1.007048      -0.00043963187
    707000   1.1018933      0.0077963629   1.0925785     -0.0011189095 
    708000   0.96750188     0.007348347    0.96016834    -0.00013723777
    709000   1.0038842      0.0064073079   0.99434722    -0.0020700434 
    710000   1.0427715      0.0056984054   1.0336363     -0.0013790212 
    711000   1.0875224      0.0066886629   1.0789971     -0.00043628849
    712000   1.0025952      0.0063670815   0.99456711    -0.00057076846
    713000   1.0963656      0.0063991509   1.0882108      0            
    714000   1.020697       0.0072766021   1.0131052      1.8199898e-07
    715000   0.978162       0.0062467385   0.97055051    -0.00033589929
    716000   1.0232554      0.0059102643   1.0156444      0            
    717000   1.0054895      0.0054560388   0.99837269     0.0003620806 
    718000   1.040014       0.0078742345   1.0322784      0            
    719000   0.99621198     0.0053966788   0.98871493    -8.7211432e-05
    720000   1.0310613      0.0066130583   1.0233922      0            
    721000   0.92194894     0.0047007109   0.91567558     0.00058410713
    722000   1.0500237      0.0067959947   1.0428504      0.00063685185
    723000   0.94655623     0.0051264307   0.93951573     0            
    724000   0.98439412     0.0064051391   0.97707218     0            
    725000   0.97569798     0.0065132015   0.96844073     0            
    726000   1.0157175      0.0070243711   1.0081626      0            
    727000   1.0098672      0.0068288917   1.0018801     -0.00047571146
    728000   0.9589558      0.0049249824   0.94947006    -0.0023530086 
    729000   1.0576002      0.006404426    1.0497337      0            
    730000   1.0024824      0.006847659    0.99502612     2.1105367e-07
    731000   1.0160125      0.0059991562   1.0071788     -0.0012765694 
    732000   0.99917389     0.0061737038   0.99168075    -6.1261748e-05
    733000   0.98658701     0.0055891783   0.97902438    -0.0002243796 
    734000   1.0098727      0.0059390575   1.0023613      0            
    735000   1.0035257      0.0070865197   0.99456542    -0.0014960375 
    736000   0.9391119      0.0059835968   0.93382441     0.0016976428 
    737000   0.98937137     0.0051655192   0.9811619     -0.00085050665
    738000   1.0217868      0.0071352621   1.0149365      0.00074980252
    739000   0.99667225     0.0066591227   0.99382691     0.0045679273 
    740000   0.94468776     0.0058924688   0.93716365    -0.00049750421
    741000   1.0159169      0.0058186684   1.0074411     -0.0009194193 
    742000   0.95584658     0.0058405076   0.9474619     -0.0012750763 
    743000   1.0248222      0.0048555489   1.0164406     -0.0007589122 
    744000   0.9835897      0.0060736096   0.97655924     0.00028550017
    745000   1.0149973      0.0050571802   1.0043324     -0.0031153899 
    746000   0.99709858     0.0063831307   0.99288569     0.0032035448 
    747000   0.96972632     0.0057933717   0.96244095    -7.2530071e-05
    748000   0.94788518     0.005582684    0.93861264    -0.0022221588 
    749000   1.0578378      0.0064099252   1.0487092     -0.0012604115 
    750000   0.97721663     0.0061166083   0.96715219    -0.0027958904 
    751000   1.02868        0.006723412    1.0210286      0            
    752000   1.0648751      0.0077420693   1.0563433     -0.00061118927
    753000   1.0697139      0.0067634087   1.0617574      0            
    754000   1.0280415      0.0064685973   1.020396       1.1330809e-06
    755000   0.98268504     0.0062337963   0.97537582     0            
    756000   0.93896902     0.0063086351   0.93098531    -0.00099964861
    757000   1.0151523      0.0058390623   1.0076016      0            
    758000   0.95078551     0.0055048726   0.94372216     8.6084771e-06
    759000   0.94845353     0.0058681859   0.94139892     0            
    760000   1.0083664      0.0058923725   1.0008662      0            
    761000   1.060346       0.0063464216   1.0524591      0            
    762000   1.0173027      0.0066978963   1.009736       0            
    763000   1.0747953      0.0062154722   1.066801       0            
    764000   1.0486054      0.0051366033   1.04091        0.00010413852
    765000   1.0086057      0.006549057    1.0005332     -0.00057056994
    766000   0.92899584     0.0054525494   0.92208595     0            
    767000   1.0226298      0.0061153993   1.0137112     -0.0013122567 
    768000   1.0552595      0.0061973485   1.0487347      0.0013242135 
    769000   0.98540416     0.0061883351   0.97642182    -0.0016528926 
    770000   0.99398047     0.0062489214   0.98658723     0            
    771000   0.94253393     0.0059019847   0.93419414    -0.0013292128 
    772000   1.0233161      0.0062657839   1.0157046      0            
    773000   0.98905714     0.0052123995   0.98170052     0            
    774000   0.87165229     0.0052396453   0.86516893     0            
    775000   0.99267585     0.0063553299   0.98529231     0            
    776000   1.0179945      0.0056548469   1.0104226      0            
    777000   0.98434134     0.0054437075   0.9770198      0            
    778000   0.95243105     0.0063340904   0.94534805     1.1976981e-06
    779000   0.98981566     0.0065973931   0.98287971     0.0004263179 
    780000   1.0806276      0.0057942875   1.0716574     -0.00093251119
    781000   1.0551937      0.0065559683   1.0473451      0            
    782000   1.006191       0.0063518445   0.99796664    -0.00074029887
    783000   1.0530431      0.006202948    1.0452106      0            
    784000   1.0104439      0.0059612003   1.0030485      0.00012034228
    785000   0.98030731     0.0049802078   0.97199833    -0.0010174404 
    786000   0.99289911     0.0066409853   0.98339655    -0.0021173584 
    787000   1.0729058      0.0062035198   1.0637067     -0.0012188873 
    788000   0.99436612     0.0063619611   0.98660801    -0.00036199221
    789000   0.9494354      0.0063830406   0.94126981    -0.0011036785 
    790000   0.94498171     0.0053193064   0.93821048     0.00025756073
    791000   1.0374655      0.0067583334   1.0299182      0.00016934549
    792000   1.0646428      0.0067497768   1.056007      -0.00071693352
    793000   0.95204052     0.0053427474   0.94495923     0            
    794000   0.97526874     0.0058840167   0.96880788     0.00079320873
    795000   1.0066469      0.0057852051   0.99896532    -0.00019416708
    796000   0.9234603      0.0059194231   0.91619681    -0.00039477555
    797000   0.99696528     0.0070494301   0.9900154      0.0004655689 
    798000   1.0018756      0.0060488577   0.9927707     -0.0016528926 
    799000   1.0187526      0.0062604602   1.0103156     -0.00085946925
    800000   1.0027402      0.0063704815   0.99152996    -0.0037518426 
    801000   1.0343447      0.0063730989   1.0264444     -0.00020686417
    802000   1.0548515      0.006270688    1.0458188     -0.0011866183 
    803000   1.0680864      0.0068835209   1.0585945     -0.0015474308 
    804000   0.98750831     0.0065439005   0.97944749    -0.00071571925
    805000   1.0076037      0.0063509058   0.99929183    -0.00081732271
    806000   0.9798427      0.0054573382   0.97242188    -0.00013272732
    807000   1.0159657      0.0063879313   1.0044098     -0.0039992079 
    808000   0.90071809     0.0049045545   0.89401853     0            
    809000   1.025106       0.0061371913   1.0152114     -0.0022697952 
    810000   1.0062656      0.0065578221   0.99574769    -0.0030332656 
    811000   0.97343917     0.0068265064   0.9671163      0.00091758546
    812000   1.0397183      0.0055878      1.032114       0.00012916034
    813000   1.0013282      0.0068699429   0.99089368    -0.0029865902 
    814000   1.0293156      0.0075626237   1.021058      -0.00060151751
    815000   1.0122949      0.006289658    1.0036761     -0.0010893695 
    816000   0.99184343     0.0065916104   0.98446608     0            
    817000   0.96403975     0.0053207128   0.95688437     1.5163627e-05
    818000   0.99798624     0.0066189369   0.99139407     0.00083086258
    819000   1.0561555      0.0064694884   1.0471146     -0.0011851814 
    820000   0.95328476     0.0057114679   0.94619421     0            
    821000   0.97833209     0.007246644    0.97024923    -0.00080601117
    822000   1.0132734      0.0065265753   1.0063262      0.00058953457
    823000   1.027821       0.007114686    1.0201747     -1.3389905e-06
    824000   1.0463107      0.0057583476   1.0385283      0            
    825000   1.0197182      0.0054473854   1.011075      -0.0010584882 
    826000   0.99351042     0.0063122416   0.98612067     0            
    827000   0.96510354     0.006186595    0.95613375    -0.0017913282 
    828000   0.95113798     0.0051665953   0.94129857    -0.0027648304 
    829000   0.9607074      0.0069451052   0.95273968    -0.00082195691
    830000   0.98968192     0.0062974905   0.98232065     0            
    831000   0.97176682     0.00614492     0.96437764    -0.00016116529
    832000   0.95049547     0.0051103062   0.94091684    -0.0025088216 
    833000   1.0016298      0.0063480182   0.99249352    -0.001686127  
    834000   1.0339987      0.0063290306   1.0255151     -0.00079264682
    835000   0.94586264     0.0060655294   0.93737821    -0.0014490873 
    836000   1.0152322      0.0066546002   1.0073139     -0.00036707075
    837000   1.0311426      0.0060302319   1.0216469     -0.0018260705 
    838000   1.0634033      0.0065446727   1.0542139     -0.001279866  
    839000   0.97702446     0.0064200551   0.96838189    -0.001375447  
    840000   1.0168063      0.0082250393   1.0092433      0            
    841000   0.99222854     0.0052396457   0.98484833     0            
    842000   0.98349592     0.0047226952   0.97621727     3.6614101e-05
    843000   0.98430805     0.0055220859   0.9769703     -1.645252e-05 
    844000   1.0150073      0.0054935223   1.0074576      0            
    845000   1.0709847      0.007312499    1.0630187      0            
    846000   1.0459702      0.0064900978   1.0382559      6.5603149e-05
    847000   1.0000294      0.0060962306   0.99108343    -0.001507707  
    848000   1.0243096      0.0061976899   1.014694      -0.001996764  
    849000   0.94873497     0.0063780007   0.94168037     2.1046322e-06
    850000   1.0738393      0.0065184209   1.0658521      0            
    851000   1.0113343      0.006733544    1.0024282     -0.0013837556 
    852000   0.94530476     0.0052636766   0.93662663    -0.0016469385 
    853000   0.98577913     0.0061572797   0.98101808     0.0025711878 
    854000   1.0037519      0.0065804054   0.99628596     0            
    855000   0.96351839     0.0053118676   0.95635172     0            
    856000   1.0603152      0.0061938767   1.0524285      0            
    857000   0.91145095     0.005704275    0.90467156     0            
    858000   1.0092232      0.0073710992   0.99890417    -0.0028123658 
    859000   1.0027924      0.0062760054   0.99466147    -0.00067213303
    860000   1.0217422      0.0066888797   1.0130839     -0.0010585941 
    861000   1.0183093      0.0067796609   1.0109419      0.00020678983
    862000   1.0321413      0.006125819    1.0238484     -0.00061584308
    863000   1.0030568      0.0054857867   0.99481601    -0.00078006784
    864000   1.0335723      0.006534314    1.025105      -0.00077954865
    865000   1.0174127      0.0066163265   1.0091872     -0.00065797736
    866000   1.0264755      0.0062720445   1.0180637     -0.00077689195
    867000   0.97104448     0.0063502057   0.9590597     -0.0047621362 
    868000   1.0216744      0.0068420708   1.0118543     -0.0022208362 
    869000   0.99721838     0.0071992459   0.98595508    -0.0038459657 
    870000   0.98375818     0.0054415699   0.97644097     0            
    871000   0.9117911      0.0058584237   0.90218182    -0.0028273595 
    872000   1.0188708      0.0066126864   1.0100178     -0.0012746143 
    873000   1.0277468      0.007205472    1.019669      -0.00043337891
    874000   0.99122065     0.0061070673   0.98329309    -0.00055483846
    875000   0.9949538      0.0066630169   0.98614527    -0.0014080426 
    876000   0.99343748     0.007527545    0.98440598    -0.0016422942 
    877000   1.0436173      0.005169113    1.0345784     -0.0012763679 
    878000   0.9356257      0.006611844    0.9286665      0            
    879000   0.99734747     0.0061651272   0.98949542    -0.00043377254
    880000   1.0105134      0.0057069351   1.001651      -0.0013461676 
    881000   0.96801958     0.0059503336   0.96019987    -0.00061956599
    882000   1.0315866      0.0060428854   1.0229932     -0.0009205117 
    883000   0.9473154      0.0054804257   0.94016333    -0.00010592494
    884000   0.95658156     0.0065323911   0.94863086    -0.00083563101
    885000   1.0851337      0.006899903    1.0756062     -0.0014562584 
    886000   0.97947711     0.0059900567   0.97202506    -0.00016668219
    887000   1.0096868      0.0064049203   1.0000225     -0.0021542555 
    888000   1.0425626      0.0072670987   1.0335195     -0.001288535  
    889000   1.0195757      0.0071534953   1.0106665     -0.0013255909 
    890000   0.98172819     0.0061783765   0.97277319    -0.0016528926 
    891000   0.99885976     0.0067446607   0.99143022     0            
    892000   0.95164935     0.0059053886   0.94431456    -0.00025639976
    893000   1.0565321      0.0066592866   1.0486736      0            
    894000   1.0667059      0.0072736395   1.0587718      0            
    895000   1.0145015      0.0064353151   1.0070175      6.1916086e-05
    896000   0.98378395     0.0070357559   0.97545519    -0.0010113612 
    897000   0.94805632     0.0066102386   0.94083463    -0.0001700255 
    898000   1.0443622      0.0054929184   1.0365942      0            
    899000   1.0263667      0.0059838575   1.0160623     -0.0026701773 
    900000   1.0199691      0.0067712252   1.0107083     -0.0016742434 
    901000   0.98764273     0.005843073    0.9782487     -0.0020479305 
    902000   1.0457553      0.0057113772   1.037977       0            
    903000   0.97890031     0.0061584252   0.97056148    -0.0010577497 
    904000   1.0163944      0.0064908818   1.0087073     -0.00012717398
    905000   1.0123323      0.0058484021   1.0056752      0.00087268575
    906000   1.0221138      0.0061754872   1.014786       0.00027467861
    907000   0.98439893     0.0056678092   0.97722009     0.00014313438
    908000   0.92448595     0.0043723196   0.91603587    -0.0015737396 
    909000   1.0323997      0.0064960908   1.0246345     -8.6167197e-05
    910000   1.0019506      0.0063735529   0.99403785    -0.00046017405
    911000   0.97979647     0.0060272709   0.97250873     0            
    912000   1.0780473      0.0065805036   1.069037      -0.00099173459
    913000   0.95901972     0.0059157783   0.95140551    -0.00048101395
    914000   1.0303314      0.0049813083   1.0226678      0            
    915000   0.99505716     0.0054718148   0.98714015    -0.00051575166
    916000   1.0331879      0.0061916934   1.026706       0.0012029082 
    917000   1.0178065      0.0057461903   1.0102361      0            
    918000   0.95352776     0.0059018022   0.9464354      0            
    919000   0.99837849     0.0057249292   0.99071973    -0.00023280925
    920000   0.96632415     0.0055226666   0.95913661     0            
    921000   1.0570784      0.0069464551   1.0479505     -0.0012654081 
    922000   0.97269477     0.0056048916   0.96545985     0            
    923000   1.0196436      0.0067631651   1.0120595      0            
    924000   0.99119646     0.0057450161   0.98064767    -0.0031762588 
    925000   1.1507503      0.0066740323   1.1395303     -0.0026606788 
    926000   0.99958404     0.0064355717   0.98914792    -0.0030011967 
    927000   1.0189452      0.006624619    1.009604      -0.0017622842 
    928000   0.98374147     0.005465943    0.97540809    -0.0010162973 
    929000   0.93769661     0.0061864745   0.93109728     0.00037527197
    930000   1.0236764      0.0057259786   1.0157586     -0.00030376963
    931000   0.90913463     0.0058325507   0.90226518    -0.00010729069
    932000   0.98910329     0.0066088053   0.98174632     0            
    933000   0.99474472     0.0055386305   0.98640957    -0.00093622157
    934000   1.0001158      0.0066182383   0.99126774    -0.0014091732 
    935000   0.93300037     0.006315553    0.92605994    -7.6365628e-07
    936000   0.9923446      0.0047068394   0.98247438    -0.0024891403 
    937000   0.98992513     0.0053379114   0.98070569    -0.0018563594 
    938000   1.0020688      0.005640793    0.99770793     0.0030925259 
    939000   0.89633016     0.0058672229   0.88804669    -0.0016165555 
    940000   0.98983348     0.0062579484   0.98218279    -0.0002882895 
    941000   0.97361529     0.0059108127   0.96549273    -0.00088079092
    942000   1.036465       0.0060828134   1.0284796     -0.00027619576
    943000   0.91372684     0.0055864261   0.90693052     0            
    944000   0.99223041     0.005466398    0.98492879     7.8613628e-05
    945000   1.0402694      0.0066865149   1.0325318      0            
    946000   0.99750853     0.0065647594   0.99008904     0            
    947000   0.97686897     0.0058977695   0.97148136     0.0018783493 
    948000   1.0622354      0.0063258678   1.0526815     -0.0016528926 
    949000   0.96189474     0.0061928127   0.9547378     -2.3485914e-06
    950000   1.0411884      0.0058348851   1.0320089     -0.0014351621 
    951000   0.97332875     0.0055984278   0.96505558    -0.0010335391 
    952000   1.0128403      0.006579001    1.0044001     -0.00090669895
    953000   1.0099482      0.0050689345   0.99987216    -0.0025640235 
    954000   1.0910179      0.0068087789   1.0823026     -0.00060037768
    955000   1.055925       0.0061297498   1.047878      -0.00019308294
    956000   1.0219528      0.005582867    1.0148582      0.00050676425
    957000   0.99685235     0.0058579908   0.98783182    -0.0016059223 
    958000   0.95797701     0.0047740257   0.94966817    -0.001183397  
    959000   1.0669129      0.0059978904   1.0589772      0            
    960000   1.0195911      0.0053808969   1.0106371     -0.0013702908 
    961000   0.98337636     0.0051110431   0.9751351     -0.00092689863
    962000   0.98507005     0.0067376033   0.97624365    -0.0014994333 
    963000   0.95919558     0.0065763389   0.95205933    -1.7398722e-06
    964000   0.96433831     0.0063303992   0.95611084    -0.0010547114 
    965000   1.0920884      0.0071523456   1.0839655      0            
    966000   1.0486945      0.006946153    1.0406075     -0.00028672478
    967000   1.0110373      0.0059393108   1.0034936     -2.3588162e-05
    968000   0.97188294     0.0058468064   0.96435683    -0.00029723334
    969000   0.99730063     0.0058664591   0.98980635    -7.6346e-05   
    970000   1.0637442      0.0061960319   1.0536043     -0.0022277686 
    971000   1.0209737      0.0065932316   1.012816      -0.00056362505
    972000   1.0642889      0.0065279738   1.0562527     -0.00012008759
    973000   1.0652102      0.0073800705   1.0561425     -0.0011446038 
    974000   0.98185051     0.0057910415   0.97354299    -0.0010044939 
    975000   1.0008695      0.006567021    0.99148185    -0.0019431536 
    976000   0.97702999     0.0060662753   0.9689128     -0.00085002385
    977000   0.98847838     0.0056508208   0.97943745    -0.0016886126 
    978000   0.9498221      0.0061789697   0.94168684    -0.0010704632 
    979000   0.98201866     0.0059546636   0.97350585    -0.001208537  
    980000   0.96659696     0.0056909935   0.95781236    -0.0015950434 
    981000   1.0386468      0.0075656026   1.0300742     -0.0008470931 
    982000   0.96857449     0.0051510523   0.9590962     -0.0022740127 
    983000   0.99737485     0.0059667654   0.98901298    -0.00094337805
    984000   0.93517639     0.0049799243   0.92691653    -0.0013040069 
    985000   1.0253326      0.0059409205   1.0165037     -0.0012024159 
    986000   1.0672464      0.0067269241   1.0601898      0.00088165452
    987000   0.99152307     0.0043559501   0.9825165     -0.001631606  
    988000   0.99915418     0.0062809898   0.99172395     1.5042276e-06
    989000   1.0627858      0.00579524     1.054029      -0.00085175989
    990000   1.013631       0.0060558401   1.0060916      0            
    991000   0.97486965     0.0058402423   0.96692301    -0.00069554532
    992000   0.96830373     0.0061810915   0.9589277     -0.0021737686 
    993000   0.94476459     0.0056973019   0.93627581    -0.0014616064 
    994000   0.94636212     0.0066281217   0.93952376     0.00020069617
    995000   0.96445913     0.0056454228   0.95593505    -0.0013504148 
    996000   0.99748838     0.0060494035   0.99006904     0            
    997000   1.0094424      0.0066182707   1.0019341      0            
    998000   1.0274564      0.0060593113   1.0223265      0.00251228   
    999000   0.98332941     0.0068590197   0.97601539     0            
   1000000   1.0012875      0.0063800839   0.99383994     0            
Loop time of 26.6758 on 1 procs for 1000000 steps with 605 atoms

Performance: 32388851.656 tau/day, 37487.097 timesteps/s
98.6% CPU use with 1 MPI tasks x no OpenMP threads

MPI task timing breakdown:
Section |  min time  |  avg time  |  max time  |%varavg| %total
---------------------------------------------------------------
Pair    | 1.1889     | 1.1889     | 1.1889     |   0.0 |  4.46
Bond    | 0.042324   | 0.042324   | 0.042324   |   0.0 |  0.16
Neigh   | 6.5129     | 6.5129     | 6.5129     |   0.0 | 24.41
Comm    | 1.2607     | 1.2607     | 1.2607     |   0.0 |  4.73
Output  | 0.47233    | 0.47233    | 0.47233    |   0.0 |  1.77
Modify  | 15.266     | 15.266     | 15.266     |   0.0 | 57.23
Other   |            | 1.933      |            |       |  7.25

Nlocal:            605 ave         605 max         605 min
Histogram: 1 0 0 0 0 0 0 0 0 0
Nghost:            105 ave         105 max         105 min
Histogram: 1 0 0 0 0 0 0 0 0 0
Neighs:              4 ave           4 max           4 min
Histogram: 1 0 0 0 0 0 0 0 0 0

Total # of neighbors = 4
Ave neighs/atom = 0.0066115702
Ave special neighs/atom = 0
Neighbor list builds = 218483
Dangerous builds = 0
Total wall time: 0:00:26
