ITEM: TIMESTEP
0
ITEM: NUMBER OF ATOMS
5
ITEM: BOX BOUNDS pp pp pp
-1.5625000000000000e+03 1.5625000000000000e+03
-1.5625000000000000e+03 1.5625000000000000e+03
-5.0000000000000003e-02 5.0000000000000003e-02
ITEM: ATOMS id type mol x y z
5 2 1 150 407.25 0
2 2 1 144.75 412.5 0
1 1 1 150 412.5 0
4 2 1 155.25 412.5 0
3 2 1 150 417.75 0
ITEM: TIMESTEP
1000
ITEM: NUMBER OF ATOMS
5
ITEM: BOX BOUNDS pp pp pp
-1.5625000000000000e+03 1.5625000000000000e+03
-1.5625000000000000e+03 1.5625000000000000e+03
-5.0000000000000003e-02 5.0000000000000003e-02
ITEM: ATOMS id type mol x y z
5 2 1 148.313 405.815 -2.91434e-16
2 2 1 142.237 410.083 9.1756e-16
1 1 1 147.409 410.987 0
4 2 1 152.581 411.89 -9.1756e-16
3 2 1 146.506 416.159 2.91434e-16
ITEM: TIMESTEP
2000
ITEM: NUMBER OF ATOMS
5
ITEM: BOX BOUNDS pp pp pp
-1.5625000000000000e+03 1.5625000000000000e+03
-1.5625000000000000e+03 1.5625000000000000e+03
-5.0000000000000003e-02 5.0000000000000003e-02
ITEM: ATOMS id type mol x y z
5 2 1 153.757 405.224 -5.82867e-16
2 2 1 146.487 406.729 6.92155e-16
1 1 1 150.875 409.612 0
4 2 1 155.263 412.494 -6.92155e-16
3 2 1 147.993 414 5.82867e-16
ITEM: TIMESTEP
3000
ITEM: NUMBER OF ATOMS
5
ITEM: BOX BOUNDS pp pp pp
-1.5625000000000000e+03 1.5625000000000000e+03
-1.5625000000000000e+03 1.5625000000000000e+03
-5.0000000000000003e-02 5.0000000000000003e-02
ITEM: ATOMS id type mol x y z
2 2 1 150.506 406.743 8.01442e-16
5 2 1 157.93 406.837 -5.82867e-16
3 2 1 150.411 414.167 5.82867e-16
1 1 1 154.17 410.502 0
4 2 1 157.835 414.261 -8.01442e-16
ITEM: TIMESTEP
4000
ITEM: NUMBER OF ATOMS
5
ITEM: BOX BOUNDS pp pp pp
-1.5625000000000000e+03 1.5625000000000000e+03
-1.5625000000000000e+03 1.5625000000000000e+03
-5.0000000000000003e-02 5.0000000000000003e-02
ITEM: ATOMS id type mol x y z
2 2 1 153.207 411.005 6.7394e-16
5 2 1 160.15 408.375 -1.02002e-15
3 2 1 155.837 417.948 1.02002e-15
1 1 1 157.994 413.161 0
4 2 1 162.78 415.318 -6.7394e-16
ITEM: TIMESTEP
5000
ITEM: NUMBER OF ATOMS
5
ITEM: BOX BOUNDS pp pp pp
-1.5625000000000000e+03 1.5625000000000000e+03
-1.5625000000000000e+03 1.5625000000000000e+03
-5.0000000000000003e-02 5.0000000000000003e-02
ITEM: ATOMS id type mol x y z
5 2 1 162.216 408.935 -1.45717e-15
2 2 1 154.801 408.564 -8.01442e-16
1 1 1 158.323 412.457 0
3 2 1 154.43 415.98 1.45717e-15
4 2 1 161.845 416.351 8.01442e-16
ITEM: TIMESTEP
6000
ITEM: NUMBER OF ATOMS
5
ITEM: BOX BOUNDS pp pp pp
-1.5625000000000000e+03 1.5625000000000000e+03
-1.5625000000000000e+03 1.5625000000000000e+03
-5.0000000000000003e-02 5.0000000000000003e-02
ITEM: ATOMS id type mol x y z
2 2 1 154.541 411.164 -8.74301e-16
5 2 1 161.684 413.19 -1.45717e-15
3 2 1 152.514 418.307 1.45717e-15
1 1 1 157.099 415.749 0
4 2 1 159.657 420.333 8.74301e-16
ITEM: TIMESTEP
7000
ITEM: NUMBER OF ATOMS
5
ITEM: BOX BOUNDS pp pp pp
-1.5625000000000000e+03 1.5625000000000000e+03
-1.5625000000000000e+03 1.5625000000000000e+03
-5.0000000000000003e-02 5.0000000000000003e-02
ITEM: ATOMS id type mol x y z
2 2 1 156.871 410.315 -7.28584e-17
5 2 1 164.146 411.799 -1.7486e-15
3 2 1 155.388 417.59 1.7486e-15
1 1 1 159.767 414.695 0
4 2 1 162.662 419.074 7.28584e-17
ITEM: TIMESTEP
8000
ITEM: NUMBER OF ATOMS
5
ITEM: BOX BOUNDS pp pp pp
-1.5625000000000000e+03 1.5625000000000000e+03
-1.5625000000000000e+03 1.5625000000000000e+03
-5.0000000000000003e-02 5.0000000000000003e-02
ITEM: ATOMS id type mol x y z
2 2 1 156.319 410.713 -8.74301e-16
1 1 1 158.336 415.56 0
5 2 1 163.183 413.544 -1.45717e-15
3 2 1 153.488 417.576 1.45717e-15
4 2 1 160.352 420.407 8.74301e-16
ITEM: TIMESTEP
9000
ITEM: NUMBER OF ATOMS
5
ITEM: BOX BOUNDS pp pp pp
-1.5625000000000000e+03 1.5625000000000000e+03
-1.5625000000000000e+03 1.5625000000000000e+03
-5.0000000000000003e-02 5.0000000000000003e-02
ITEM: ATOMS id type mol x y z
2 2 1 157.578 410.494 -1.02002e-15
5 2 1 163.585 414.857 -1.45717e-15
3 2 1 153.215 416.501 1.45717e-15
1 1 1 158.4 415.679 0
4 2 1 159.222 420.864 1.02002e-15
ITEM: TIMESTEP
10000
ITEM: NUMBER OF ATOMS
5
ITEM: BOX BOUNDS pp pp pp
-1.5625000000000000e+03 1.5625000000000000e+03
-1.5625000000000000e+03 1.5625000000000000e+03
-5.0000000000000003e-02 5.0000000000000003e-02
ITEM: ATOMS id type mol x y z
2 2 1 159.179 411.824 -1.7486e-15
5 2 1 164.554 416.946 -5.82867e-16
3 2 1 154.057 417.198 5.82867e-16
1 1 1 159.305 417.072 0
4 2 1 159.432 422.321 1.7486e-15
ITEM: TIMESTEP
11000
ITEM: NUMBER OF ATOMS
5
ITEM: BOX BOUNDS pp pp pp
-1.5625000000000000e+03 1.5625000000000000e+03
-1.5625000000000000e+03 1.5625000000000000e+03
-5.0000000000000003e-02 5.0000000000000003e-02
ITEM: ATOMS id type mol x y z
2 2 1 158.037 410.708 -1.45717e-15
3 2 1 152.329 415.457 8.74301e-16
1 1 1 157.557 415.936 0
5 2 1 162.785 416.416 -8.74301e-16
4 2 1 157.077 421.164 1.45717e-15
ITEM: TIMESTEP
12000
ITEM: NUMBER OF ATOMS
5
ITEM: BOX BOUNDS pp pp pp
-1.5625000000000000e+03 1.5625000000000000e+03
-1.5625000000000000e+03 1.5625000000000000e+03
-5.0000000000000003e-02 5.0000000000000003e-02
ITEM: ATOMS id type mol x y z
2 2 1 162.081 410.934 -1.45717e-15
3 2 1 154.875 412.723 -1.7486e-15
1 1 1 159.372 415.431 0
5 2 1 163.869 418.14 1.7486e-15
4 2 1 156.664 419.928 1.45717e-15
ITEM: TIMESTEP
13000
ITEM: NUMBER OF ATOMS
5
ITEM: BOX BOUNDS pp pp pp
-1.5625000000000000e+03 1.5625000000000000e+03
-1.5625000000000000e+03 1.5625000000000000e+03
-5.0000000000000003e-02 5.0000000000000003e-02
ITEM: ATOMS id type mol x y z
3 2 1 155.35 411.689 -5.82867e-16
2 2 1 161.951 408.289 -2.6229e-15
1 1 1 160.35 413.289 0
4 2 1 158.75 418.289 2.6229e-15
5 2 1 165.35 414.89 5.82867e-16
ITEM: TIMESTEP
14000
ITEM: NUMBER OF ATOMS
5
ITEM: BOX BOUNDS pp pp pp
-1.5625000000000000e+03 1.5625000000000000e+03
-1.5625000000000000e+03 1.5625000000000000e+03
-5.0000000000000003e-02 5.0000000000000003e-02
ITEM: ATOMS id type mol x y z
2 2 1 157.778 409.712 -2.18575e-15
3 2 1 153.179 415.541 2.91434e-16
1 1 1 158.393 414.926 0
5 2 1 163.607 414.311 -2.91434e-16
4 2 1 159.008 420.14 2.18575e-15
ITEM: TIMESTEP
15000
ITEM: NUMBER OF ATOMS
5
ITEM: BOX BOUNDS pp pp pp
-1.5625000000000000e+03 1.5625000000000000e+03
-1.5625000000000000e+03 1.5625000000000000e+03
-5.0000000000000003e-02 5.0000000000000003e-02
ITEM: ATOMS id type mol x y z
2 2 1 159.867 411.209 -1.60288e-15
1 1 1 160.916 416.353 0
5 2 1 166.06 415.304 -5.82867e-16
3 2 1 155.771 417.401 5.82867e-16
4 2 1 161.964 421.497 1.60288e-15
ITEM: TIMESTEP
16000
ITEM: NUMBER OF ATOMS
5
ITEM: BOX BOUNDS pp pp pp
-1.5625000000000000e+03 1.5625000000000000e+03
-1.5625000000000000e+03 1.5625000000000000e+03
-5.0000000000000003e-02 5.0000000000000003e-02
ITEM: ATOMS id type mol x y z
2 2 1 161.161 411.904 -2.04003e-15
1 1 1 160.986 417.151 0
3 2 1 155.739 416.976 2.91434e-16
5 2 1 166.233 417.326 -2.91434e-16
4 2 1 160.811 422.398 2.04003e-15
ITEM: TIMESTEP
17000
ITEM: NUMBER OF ATOMS
5
ITEM: BOX BOUNDS pp pp pp
-1.5625000000000000e+03 1.5625000000000000e+03
-1.5625000000000000e+03 1.5625000000000000e+03
-5.0000000000000003e-02 5.0000000000000003e-02
ITEM: ATOMS id type mol x y z
2 2 1 162.028 410.875 -2.91434e-15
1 1 1 160.803 415.981 0
3 2 1 155.698 414.756 5.82867e-16
5 2 1 165.908 417.205 -5.82867e-16
4 2 1 159.579 421.086 2.91434e-15
ITEM: TIMESTEP
18000
ITEM: NUMBER OF ATOMS
5
ITEM: BOX BOUNDS pp pp pp
-1.5625000000000000e+03 1.5625000000000000e+03
-1.5625000000000000e+03 1.5625000000000000e+03
-5.0000000000000003e-02 5.0000000000000003e-02
ITEM: ATOMS id type mol x y z
3 2 1 158.094 414.365 0
2 2 1 164.964 411.548 -2.91434e-15
1 1 1 162.938 416.391 0
5 2 1 167.781 418.417 0
4 2 1 160.912 421.235 2.91434e-15
ITEM: TIMESTEP
19000
ITEM: NUMBER OF ATOMS
5
ITEM: BOX BOUNDS pp pp pp
-1.5625000000000000e+03 1.5625000000000000e+03
-1.5625000000000000e+03 1.5625000000000000e+03
-5.0000000000000003e-02 5.0000000000000003e-02
ITEM: ATOMS id type mol x y z
3 2 1 154.542 412.835 -1.16573e-15
2 2 1 161.966 412.938 -1.16573e-15
1 1 1 158.203 416.598 0
5 2 1 161.863 420.362 1.16573e-15
4 2 1 154.439 420.259 1.16573e-15
ITEM: TIMESTEP
20000
ITEM: NUMBER OF ATOMS
5
ITEM: BOX BOUNDS pp pp pp
-1.5625000000000000e+03 1.5625000000000000e+03
-1.5625000000000000e+03 1.5625000000000000e+03
-5.0000000000000003e-02 5.0000000000000003e-02
ITEM: ATOMS id type mol x y z
3 2 1 155.119 411.886 -1.45717e-15
2 2 1 162.489 410.979 -1.7486e-15
4 2 1 156.026 419.255 1.7486e-15
1 1 1 159.257 415.117 0
5 2 1 163.395 418.348 1.45717e-15
ITEM: TIMESTEP
21000
ITEM: NUMBER OF ATOMS
5
ITEM: BOX BOUNDS pp pp pp
-1.5625000000000000e+03 1.5625000000000000e+03
-1.5625000000000000e+03 1.5625000000000000e+03
-5.0000000000000003e-02 5.0000000000000003e-02
ITEM: ATOMS id type mol x y z
3 2 1 154.908 411.42 -1.7486e-15
1 1 1 158.658 415.094 0
2 2 1 162.333 411.345 -2.33147e-15
4 2 1 154.983 418.844 2.33147e-15
5 2 1 162.408 418.769 1.7486e-15
ITEM: TIMESTEP
22000
ITEM: NUMBER OF ATOMS
5
ITEM: BOX BOUNDS pp pp pp
-1.5625000000000000e+03 1.5625000000000000e+03
-1.5625000000000000e+03 1.5625000000000000e+03
-5.0000000000000003e-02 5.0000000000000003e-02
ITEM: ATOMS id type mol x y z
3 2 1 150.445 410.238 -1.45717e-15
1 1 1 153.899 414.192 0
2 2 1 157.852 410.738 -3.20577e-15
4 2 1 149.945 417.646 3.20577e-15
5 2 1 157.353 418.146 1.45717e-15
ITEM: TIMESTEP
23000
ITEM: NUMBER OF ATOMS
5
ITEM: BOX BOUNDS pp pp pp
-1.5625000000000000e+03 1.5625000000000000e+03
-1.5625000000000000e+03 1.5625000000000000e+03
-5.0000000000000003e-02 5.0000000000000003e-02
ITEM: ATOMS id type mol x y z
3 2 1 149.781 409.202 -8.74301e-16
1 1 1 153.254 413.14 0
2 2 1 157.191 409.666 -2.91434e-15
4 2 1 149.317 416.613 2.91434e-15
5 2 1 156.727 417.077 8.74301e-16
ITEM: TIMESTEP
24000
ITEM: NUMBER OF ATOMS
5
ITEM: BOX BOUNDS pp pp pp
-1.5625000000000000e+03 1.5625000000000000e+03
-1.5625000000000000e+03 1.5625000000000000e+03
-5.0000000000000003e-02 5.0000000000000003e-02
ITEM: ATOMS id type mol x y z
3 2 1 150.281 414.112 5.82867e-16
2 2 1 157.27 411.605 -3.78864e-15
1 1 1 155.029 416.353 0
5 2 1 159.777 418.594 -5.82867e-16
4 2 1 152.788 421.1 3.78864e-15
ITEM: TIMESTEP
25000
ITEM: NUMBER OF ATOMS
5
ITEM: BOX BOUNDS pp pp pp
-1.5625000000000000e+03 1.5625000000000000e+03
-1.5625000000000000e+03 1.5625000000000000e+03
-5.0000000000000003e-02 5.0000000000000003e-02
ITEM: ATOMS id type mol x y z
3 2 1 149.711 418.057 2.33147e-15
2 2 1 153.925 411.944 -3.20577e-15
1 1 1 154.874 417.108 0
5 2 1 160.038 416.158 -2.33147e-15
4 2 1 155.824 422.271 3.20577e-15
ITEM: TIMESTEP
26000
ITEM: NUMBER OF ATOMS
5
ITEM: BOX BOUNDS pp pp pp
-1.5625000000000000e+03 1.5625000000000000e+03
-1.5625000000000000e+03 1.5625000000000000e+03
-5.0000000000000003e-02 5.0000000000000003e-02
ITEM: ATOMS id type mol x y z
2 2 1 154.363 411.925 -4.08007e-15
3 2 1 149.84 417.812 1.16573e-15
1 1 1 155.045 417.13 0
5 2 1 160.251 416.448 -1.16573e-15
4 2 1 155.727 422.336 4.08007e-15
ITEM: TIMESTEP
27000
ITEM: NUMBER OF ATOMS
5
ITEM: BOX BOUNDS pp pp pp
-1.5625000000000000e+03 1.5625000000000000e+03
-1.5625000000000000e+03 1.5625000000000000e+03
-5.0000000000000003e-02 5.0000000000000003e-02
ITEM: ATOMS id type mol x y z
2 2 1 157.614 412.792 -4.95437e-15
3 2 1 150.607 415.248 0
1 1 1 155.338 417.524 0
5 2 1 160.07 419.799 0
4 2 1 153.063 422.255 4.95437e-15
ITEM: TIMESTEP
28000
ITEM: NUMBER OF ATOMS
5
ITEM: BOX BOUNDS pp pp pp
-1.5625000000000000e+03 1.5625000000000000e+03
-1.5625000000000000e+03 1.5625000000000000e+03
-5.0000000000000003e-02 5.0000000000000003e-02
ITEM: ATOMS id type mol x y z
2 2 1 155.576 409.881 -3.20577e-15
3 2 1 150.157 414.956 3.78864e-15
1 1 1 155.404 415.128 0
5 2 1 160.651 415.3 -3.78864e-15
4 2 1 155.233 420.375 3.20577e-15
ITEM: TIMESTEP
29000
ITEM: NUMBER OF ATOMS
5
ITEM: BOX BOUNDS pp pp pp
-1.5625000000000000e+03 1.5625000000000000e+03
-1.5625000000000000e+03 1.5625000000000000e+03
-5.0000000000000003e-02 5.0000000000000003e-02
ITEM: ATOMS id type mol x y z
2 2 1 153.658 407.182 -2.6229e-15
3 2 1 149.541 413.361 4.3715e-15
1 1 1 154.689 412.33 0
4 2 1 155.72 417.478 2.6229e-15
5 2 1 159.836 411.299 -4.3715e-15
ITEM: TIMESTEP
30000
ITEM: NUMBER OF ATOMS
5
ITEM: BOX BOUNDS pp pp pp
-1.5625000000000000e+03 1.5625000000000000e+03
-1.5625000000000000e+03 1.5625000000000000e+03
-5.0000000000000003e-02 5.0000000000000003e-02
ITEM: ATOMS id type mol x y z
2 2 1 157.33 410.937 -3.78864e-15
3 2 1 152.011 416.117 4.08007e-15
1 1 1 157.26 416.187 0
5 2 1 162.51 416.257 -4.08007e-15
4 2 1 157.19 421.437 3.78864e-15
ITEM: TIMESTEP
31000
ITEM: NUMBER OF ATOMS
5
ITEM: BOX BOUNDS pp pp pp
-1.5625000000000000e+03 1.5625000000000000e+03
-1.5625000000000000e+03 1.5625000000000000e+03
-5.0000000000000003e-02 5.0000000000000003e-02
ITEM: ATOMS id type mol x y z
2 2 1 158.91 412.122 -4.3715e-15
3 2 1 152.718 416.218 4.3715e-15
1 1 1 157.862 417.266 0
5 2 1 163.007 418.314 -4.3715e-15
4 2 1 156.814 422.41 4.3715e-15
ITEM: TIMESTEP
32000
ITEM: NUMBER OF ATOMS
5
ITEM: BOX BOUNDS pp pp pp
-1.5625000000000000e+03 1.5625000000000000e+03
-1.5625000000000000e+03 1.5625000000000000e+03
-5.0000000000000003e-02 5.0000000000000003e-02
ITEM: ATOMS id type mol x y z
2 2 1 152.097 413.916 1.42074e-15
3 2 1 152.958 421.291 6.1201e-15
1 1 1 156.215 417.173 0
5 2 1 159.472 413.055 -6.1201e-15
4 2 1 160.333 420.43 -1.42074e-15
ITEM: TIMESTEP
33000
ITEM: NUMBER OF ATOMS
5
ITEM: BOX BOUNDS pp pp pp
-1.5625000000000000e+03 1.5625000000000000e+03
-1.5625000000000000e+03 1.5625000000000000e+03
-5.0000000000000003e-02 5.0000000000000003e-02
ITEM: ATOMS id type mol x y z
2 2 1 151.458 409.224 -2.76862e-15
5 2 1 158.407 411.838 -5.53724e-15
1 1 1 153.625 414.005 0
4 2 1 155.792 418.787 2.76862e-15
3 2 1 148.843 416.173 5.53724e-15
ITEM: TIMESTEP
34000
ITEM: NUMBER OF ATOMS
5
ITEM: BOX BOUNDS pp pp pp
-1.5625000000000000e+03 1.5625000000000000e+03
-1.5625000000000000e+03 1.5625000000000000e+03
-5.0000000000000003e-02 5.0000000000000003e-02
ITEM: ATOMS id type mol x y z
2 2 1 149.969 412.677 1.8761e-15
1 1 1 154.637 415.079 0
5 2 1 157.039 410.41 -6.41154e-15
3 2 1 152.236 419.747 6.41154e-15
4 2 1 159.306 417.48 -1.8761e-15
ITEM: TIMESTEP
35000
ITEM: NUMBER OF ATOMS
5
ITEM: BOX BOUNDS pp pp pp
-1.5625000000000000e+03 1.5625000000000000e+03
-1.5625000000000000e+03 1.5625000000000000e+03
-5.0000000000000003e-02 5.0000000000000003e-02
ITEM: ATOMS id type mol x y z
2 2 1 153.462 411.951 2.87791e-15
1 1 1 158.099 414.412 0
5 2 1 160.56 409.775 -6.1201e-15
3 2 1 155.639 419.05 6.1201e-15
4 2 1 162.737 416.873 -2.87791e-15
ITEM: TIMESTEP
36000
ITEM: NUMBER OF ATOMS
5
ITEM: BOX BOUNDS pp pp pp
-1.5625000000000000e+03 1.5625000000000000e+03
-1.5625000000000000e+03 1.5625000000000000e+03
-5.0000000000000003e-02 5.0000000000000003e-02
ITEM: ATOMS id type mol x y z
2 2 1 151.879 413.312 3.86149e-15
1 1 1 156.253 416.215 0
5 2 1 159.156 411.84 -6.99441e-15
3 2 1 153.35 420.589 6.99441e-15
4 2 1 160.627 419.118 -3.86149e-15
ITEM: TIMESTEP
37000
ITEM: NUMBER OF ATOMS
5
ITEM: BOX BOUNDS pp pp pp
-1.5625000000000000e+03 1.5625000000000000e+03
-1.5625000000000000e+03 1.5625000000000000e+03
-5.0000000000000003e-02 5.0000000000000003e-02
ITEM: ATOMS id type mol x y z
2 2 1 151.375 415.073 5.08187e-15
5 2 1 158.389 412.64 -7.14012e-15
3 2 1 153.807 422.087 7.14012e-15
1 1 1 156.098 417.364 0
4 2 1 160.822 419.655 -5.08187e-15
ITEM: TIMESTEP
38000
ITEM: NUMBER OF ATOMS
5
ITEM: BOX BOUNDS pp pp pp
-1.5625000000000000e+03 1.5625000000000000e+03
-1.5625000000000000e+03 1.5625000000000000e+03
-5.0000000000000003e-02 5.0000000000000003e-02
ITEM: ATOMS id type mol x y z
2 2 1 147.629 416.789 1.02912e-14
5 2 1 150.105 409.79 -1.31145e-15
1 1 1 152.366 414.528 0
4 2 1 157.104 412.267 -1.02912e-14
3 2 1 154.628 419.266 1.31145e-15
ITEM: TIMESTEP
39000
ITEM: NUMBER OF ATOMS
5
ITEM: BOX BOUNDS pp pp pp
-1.5625000000000000e+03 1.5625000000000000e+03
-1.5625000000000000e+03 1.5625000000000000e+03
-5.0000000000000003e-02 5.0000000000000003e-02
ITEM: ATOMS id type mol x y z
5 2 1 149.695 413.882 8.74301e-16
1 1 1 153.192 417.798 0
4 2 1 157.108 414.301 -1.02002e-14
2 2 1 149.276 421.295 1.02002e-14
3 2 1 156.689 421.714 -8.74301e-16
ITEM: TIMESTEP
40000
ITEM: NUMBER OF ATOMS
5
ITEM: BOX BOUNDS pp pp pp
-1.5625000000000000e+03 1.5625000000000000e+03
-1.5625000000000000e+03 1.5625000000000000e+03
-5.0000000000000003e-02 5.0000000000000003e-02
ITEM: ATOMS id type mol x y z
5 2 1 150.105 412.189 1.7486e-15
4 2 1 157.515 412.649 -1.24588e-14
1 1 1 153.58 416.124 0
2 2 1 149.644 419.6 1.24588e-14
3 2 1 157.055 420.06 -1.7486e-15
ITEM: TIMESTEP
41000
ITEM: NUMBER OF ATOMS
5
ITEM: BOX BOUNDS pp pp pp
-1.5625000000000000e+03 1.5625000000000000e+03
-1.5625000000000000e+03 1.5625000000000000e+03
-5.0000000000000003e-02 5.0000000000000003e-02
ITEM: ATOMS id type mol x y z
5 2 1 149.05 415.579 0
4 2 1 156.445 416.246 -1.14388e-14
2 2 1 148.383 422.974 1.14388e-14
1 1 1 152.414 419.61 0
3 2 1 155.778 423.641 0
ITEM: TIMESTEP
42000
ITEM: NUMBER OF ATOMS
5
ITEM: BOX BOUNDS pp pp pp
-1.5625000000000000e+03 1.5625000000000000e+03
-1.5625000000000000e+03 1.5625000000000000e+03
-5.0000000000000003e-02 5.0000000000000003e-02
ITEM: ATOMS id type mol x y z
5 2 1 152.11 415.65 -5.02723e-15
1 1 1 153.224 420.78 0
4 2 1 158.354 419.667 -1.1967e-14
2 2 1 148.093 421.894 1.1967e-14
3 2 1 154.337 425.911 5.02723e-15
ITEM: TIMESTEP
43000
ITEM: NUMBER OF ATOMS
5
ITEM: BOX BOUNDS pp pp pp
-1.5625000000000000e+03 1.5625000000000000e+03
-1.5625000000000000e+03 1.5625000000000000e+03
-5.0000000000000003e-02 5.0000000000000003e-02
ITEM: ATOMS id type mol x y z
5 2 1 150.945 414.05 -7.28584e-16
1 1 1 153.173 418.804 0
4 2 1 157.927 416.576 -1.36427e-14
2 2 1 148.419 421.031 1.36427e-14
3 2 1 155.4 423.558 7.28584e-16
ITEM: TIMESTEP
44000
ITEM: NUMBER OF ATOMS
5
ITEM: BOX BOUNDS pp pp pp
-1.5625000000000000e+03 1.5625000000000000e+03
-1.5625000000000000e+03 1.5625000000000000e+03
-5.0000000000000003e-02 5.0000000000000003e-02
ITEM: ATOMS id type mol x y z
5 2 1 150.447 420.643 9.03444e-15
1 1 1 155.31 422.622 0
4 2 1 157.289 417.759 -1.18031e-14
2 2 1 153.332 427.485 1.18031e-14
3 2 1 160.173 424.6 -9.03444e-15
ITEM: TIMESTEP
45000
ITEM: NUMBER OF ATOMS
5
ITEM: BOX BOUNDS pp pp pp
-1.5625000000000000e+03 1.5625000000000000e+03
-1.5625000000000000e+03 1.5625000000000000e+03
-5.0000000000000003e-02 5.0000000000000003e-02
ITEM: ATOMS id type mol x y z
5 2 1 150.623 418.708 4.08007e-15
4 2 1 158.046 418.601 -1.42074e-14
1 1 1 154.388 422.366 0
3 2 1 158.154 426.025 -4.08007e-15
2 2 1 150.73 426.132 1.42074e-14
ITEM: TIMESTEP
46000
ITEM: NUMBER OF ATOMS
5
ITEM: BOX BOUNDS pp pp pp
-1.5625000000000000e+03 1.5625000000000000e+03
-1.5625000000000000e+03 1.5625000000000000e+03
-5.0000000000000003e-02 5.0000000000000003e-02
ITEM: ATOMS id type mol x y z
5 2 1 152.393 415.541 1.45717e-15
4 2 1 159.814 415.303 -1.55188e-14
1 1 1 156.223 419.132 0
2 2 1 152.631 422.962 1.55188e-14
3 2 1 160.052 422.724 -1.45717e-15
ITEM: TIMESTEP
47000
ITEM: NUMBER OF ATOMS
5
ITEM: BOX BOUNDS pp pp pp
-1.5625000000000000e+03 1.5625000000000000e+03
-1.5625000000000000e+03 1.5625000000000000e+03
-5.0000000000000003e-02 5.0000000000000003e-02
ITEM: ATOMS id type mol x y z
5 2 1 151.613 415.931 9.03444e-15
4 2 1 158.179 412.465 -1.31145e-14
1 1 1 156.629 417.481 0
2 2 1 155.079 422.497 1.31145e-14
3 2 1 161.645 419.031 -9.03444e-15
ITEM: TIMESTEP
48000
ITEM: NUMBER OF ATOMS
5
ITEM: BOX BOUNDS pp pp pp
-1.5625000000000000e+03 1.5625000000000000e+03
-1.5625000000000000e+03 1.5625000000000000e+03
-5.0000000000000003e-02 5.0000000000000003e-02
ITEM: ATOMS id type mol x y z
4 2 1 161.375 415.193 -1.28231e-14
5 2 1 154.58 418.187 8.74301e-15
1 1 1 159.474 420.087 0
3 2 1 164.368 421.988 -8.74301e-15
2 2 1 157.574 424.981 1.28231e-14
ITEM: TIMESTEP
49000
ITEM: NUMBER OF ATOMS
5
ITEM: BOX BOUNDS pp pp pp
-1.5625000000000000e+03 1.5625000000000000e+03
-1.5625000000000000e+03 1.5625000000000000e+03
-5.0000000000000003e-02 5.0000000000000003e-02
ITEM: ATOMS id type mol x y z
5 2 1 156.646 415.408 8.45157e-15
4 2 1 163.661 412.974 -1.34059e-14
1 1 1 161.371 417.698 0
2 2 1 159.081 422.423 1.34059e-14
3 2 1 166.095 419.988 -8.45157e-15
ITEM: TIMESTEP
50000
ITEM: NUMBER OF ATOMS
5
ITEM: BOX BOUNDS pp pp pp
-1.5625000000000000e+03 1.5625000000000000e+03
-1.5625000000000000e+03 1.5625000000000000e+03
-5.0000000000000003e-02 5.0000000000000003e-02
ITEM: ATOMS id type mol x y z
4 2 1 166.7 418.704 -1.70124e-14
5 2 1 159.546 416.719 7.28584e-16
1 1 1 162.131 421.288 0
3 2 1 164.715 425.858 -7.28584e-16
2 2 1 157.561 423.873 1.70124e-14
ITEM: TIMESTEP
51000
ITEM: NUMBER OF ATOMS
5
ITEM: BOX BOUNDS pp pp pp
-1.5625000000000000e+03 1.5625000000000000e+03
-1.5625000000000000e+03 1.5625000000000000e+03
-5.0000000000000003e-02 5.0000000000000003e-02
ITEM: ATOMS id type mol x y z
5 2 1 160.254 415.552 2.6229e-15
4 2 1 167.622 416.471 -1.55917e-14
2 2 1 159.336 422.92 1.55917e-14
1 1 1 163.479 419.695 0
3 2 1 166.703 423.839 -2.6229e-15
ITEM: TIMESTEP
52000
ITEM: NUMBER OF ATOMS
5
ITEM: BOX BOUNDS pp pp pp
-1.5625000000000000e+03 1.5625000000000000e+03
-1.5625000000000000e+03 1.5625000000000000e+03
-5.0000000000000003e-02 5.0000000000000003e-02
ITEM: ATOMS id type mol x y z
5 2 1 161.922 416.623 3.4972e-15
1 1 1 165.728 420.24 0
4 2 1 169.345 416.434 -1.63203e-14
2 2 1 162.111 424.045 1.63203e-14
3 2 1 169.534 423.856 -3.4972e-15
ITEM: TIMESTEP
53000
ITEM: NUMBER OF ATOMS
5
ITEM: BOX BOUNDS pp pp pp
-1.5625000000000000e+03 1.5625000000000000e+03
-1.5625000000000000e+03 1.5625000000000000e+03
-5.0000000000000003e-02 5.0000000000000003e-02
ITEM: ATOMS id type mol x y z
5 2 1 160.321 419.136 7.28584e-15
1 1 1 165.179 421.126 0
4 2 1 167.169 416.268 -1.48631e-14
2 2 1 163.189 425.984 1.48631e-14
3 2 1 170.037 423.116 -7.28584e-15
ITEM: TIMESTEP
54000
ITEM: NUMBER OF ATOMS
5
ITEM: BOX BOUNDS pp pp pp
-1.5625000000000000e+03 1.5625000000000000e+03
-1.5625000000000000e+03 1.5625000000000000e+03
-5.0000000000000003e-02 5.0000000000000003e-02
ITEM: ATOMS id type mol x y z
5 2 1 158.56 421.986 8.16014e-15
4 2 1 165.25 418.766 -1.4426e-14
1 1 1 163.515 423.721 0
2 2 1 161.78 428.676 1.4426e-14
3 2 1 168.47 425.456 -8.16014e-15
ITEM: TIMESTEP
55000
ITEM: NUMBER OF ATOMS
5
ITEM: BOX BOUNDS pp pp pp
-1.5625000000000000e+03 1.5625000000000000e+03
-1.5625000000000000e+03 1.5625000000000000e+03
-5.0000000000000003e-02 5.0000000000000003e-02
ITEM: ATOMS id type mol x y z
4 2 1 166.891 416.787 -4.95437e-15
5 2 1 163.149 423.2 1.71946e-14
1 1 1 168.227 421.865 0
3 2 1 173.304 420.529 -1.71946e-14
2 2 1 169.562 426.942 4.95437e-15
ITEM: TIMESTEP
56000
ITEM: NUMBER OF ATOMS
5
ITEM: BOX BOUNDS pp pp pp
-1.5625000000000000e+03 1.5625000000000000e+03
-1.5625000000000000e+03 1.5625000000000000e+03
-5.0000000000000003e-02 5.0000000000000003e-02
ITEM: ATOMS id type mol x y z
3 2 1 167.241 413.576 -6.70297e-15
4 2 1 161.331 418.07 1.69031e-14
1 1 1 166.533 418.778 0
2 2 1 171.735 419.486 -1.69031e-14
5 2 1 165.825 423.98 6.70297e-15
ITEM: TIMESTEP
57000
ITEM: NUMBER OF ATOMS
5
ITEM: BOX BOUNDS pp pp pp
-1.5625000000000000e+03 1.5625000000000000e+03
-1.5625000000000000e+03 1.5625000000000000e+03
-5.0000000000000003e-02 5.0000000000000003e-02
ITEM: ATOMS id type mol x y z
3 2 1 161.332 414.738 7.28584e-15
4 2 1 160.38 422.101 1.69031e-14
1 1 1 164.538 418.896 0
2 2 1 168.695 415.69 -1.69031e-14
5 2 1 167.743 423.053 -7.28584e-15
ITEM: TIMESTEP
58000
ITEM: NUMBER OF ATOMS
5
ITEM: BOX BOUNDS pp pp pp
-1.5625000000000000e+03 1.5625000000000000e+03
-1.5625000000000000e+03 1.5625000000000000e+03
-5.0000000000000003e-02 5.0000000000000003e-02
ITEM: ATOMS id type mol x y z
3 2 1 162.118 411.522 -1.45717e-15
1 1 1 163.055 416.688 0
2 2 1 168.221 415.75 -1.83603e-14
4 2 1 157.89 417.625 1.83603e-14
5 2 1 163.993 421.853 1.45717e-15
ITEM: TIMESTEP
59000
ITEM: NUMBER OF ATOMS
5
ITEM: BOX BOUNDS pp pp pp
-1.5625000000000000e+03 1.5625000000000000e+03
-1.5625000000000000e+03 1.5625000000000000e+03
-5.0000000000000003e-02 5.0000000000000003e-02
ITEM: ATOMS id type mol x y z
3 2 1 165.982 413.053 5.2458e-15
4 2 1 158.841 415.086 2.01089e-14
1 1 1 163.428 417.64 0
2 2 1 168.015 420.194 -2.01089e-14
5 2 1 160.874 422.227 -5.2458e-15
ITEM: TIMESTEP
60000
ITEM: NUMBER OF ATOMS
5
ITEM: BOX BOUNDS pp pp pp
-1.5625000000000000e+03 1.5625000000000000e+03
-1.5625000000000000e+03 1.5625000000000000e+03
-5.0000000000000003e-02 5.0000000000000003e-02
ITEM: ATOMS id type mol x y z
4 2 1 159.853 412.519 1.86517e-14
3 2 1 166.992 410.479 4.08007e-15
1 1 1 164.442 415.068 0
2 2 1 169.032 417.618 -1.86517e-14
5 2 1 161.893 419.657 -4.08007e-15
ITEM: TIMESTEP
61000
ITEM: NUMBER OF ATOMS
5
ITEM: BOX BOUNDS pp pp pp
-1.5625000000000000e+03 1.5625000000000000e+03
-1.5625000000000000e+03 1.5625000000000000e+03
-5.0000000000000003e-02 5.0000000000000003e-02
ITEM: ATOMS id type mol x y z
4 2 1 158.797 414.597 -1.45717e-15
3 2 1 163.273 408.672 6.34597e-14
1 1 1 163.997 413.872 0
5 2 1 164.721 419.072 -6.34597e-14
2 2 1 169.197 413.148 1.45717e-15
ITEM: TIMESTEP
62000
ITEM: NUMBER OF ATOMS
5
ITEM: BOX BOUNDS pp pp pp
-1.5625000000000000e+03 1.5625000000000000e+03
-1.5625000000000000e+03 1.5625000000000000e+03
-5.0000000000000003e-02 5.0000000000000003e-02
ITEM: ATOMS id type mol x y z
3 2 1 164.806 408.483 1.97956e-13
4 2 1 159.168 413.314 2.47719e-14
1 1 1 164.403 413.718 0
2 2 1 169.637 414.121 -2.47719e-14
5 2 1 163.999 418.952 -1.97956e-13
ITEM: TIMESTEP
63000
ITEM: NUMBER OF ATOMS
5
ITEM: BOX BOUNDS pp pp pp
-1.5625000000000000e+03 1.5625000000000000e+03
-1.5625000000000000e+03 1.5625000000000000e+03
-5.0000000000000003e-02 5.0000000000000003e-02
ITEM: ATOMS id type mol x y z
3 2 1 163.106 408.742 2.99739e-13
4 2 1 159.266 415.096 -6.03267e-14
1 1 1 164.363 413.84 0
2 2 1 169.461 412.583 6.03267e-14
5 2 1 165.62 418.937 -2.99739e-13
ITEM: TIMESTEP
64000
ITEM: NUMBER OF ATOMS
5
ITEM: BOX BOUNDS pp pp pp
-1.5625000000000000e+03 1.5625000000000000e+03
-1.5625000000000000e+03 1.5625000000000000e+03
-5.0000000000000003e-02 5.0000000000000003e-02
ITEM: ATOMS id type mol x y z
3 2 1 160.59 413.091 2.63456e-13
4 2 1 165.365 418.776 -6.0385e-13
1 1 1 165.82 413.546 0
2 2 1 166.274 408.315 6.0385e-13
5 2 1 171.05 414 -2.63456e-13
ITEM: TIMESTEP
65000
ITEM: NUMBER OF ATOMS
5
ITEM: BOX BOUNDS pp pp pp
-1.5625000000000000e+03 1.5625000000000000e+03
-1.5625000000000000e+03 1.5625000000000000e+03
-5.0000000000000003e-02 5.0000000000000003e-02
ITEM: ATOMS id type mol x y z
2 2 1 166.607 410.079 5.27058e-13
3 2 1 162.644 416.358 2.11872e-13
1 1 1 167.765 415.2 0
5 2 1 172.886 414.042 -2.11872e-13
4 2 1 168.923 420.321 -5.27058e-13
ITEM: TIMESTEP
66000
ITEM: NUMBER OF ATOMS
5
ITEM: BOX BOUNDS pp pp pp
-1.5625000000000000e+03 1.5625000000000000e+03
-1.5625000000000000e+03 1.5625000000000000e+03
-5.0000000000000003e-02 5.0000000000000003e-02
ITEM: ATOMS id type mol x y z
2 2 1 168.597 411.142 5.71355e-13
5 2 1 174.022 416.211 -2.21489e-13
3 2 1 163.528 416.567 2.21489e-13
1 1 1 168.775 416.389 0
4 2 1 168.953 421.636 -5.71355e-13
ITEM: TIMESTEP
67000
ITEM: NUMBER OF ATOMS
5
ITEM: BOX BOUNDS pp pp pp
-1.5625000000000000e+03 1.5625000000000000e+03
-1.5625000000000000e+03 1.5625000000000000e+03
-5.0000000000000003e-02 5.0000000000000003e-02
ITEM: ATOMS id type mol x y z
2 2 1 169.804 411.016 5.39152e-13
3 2 1 165.281 416.904 3.15623e-13
1 1 1 170.487 416.221 0
5 2 1 175.692 415.539 -3.15623e-13
4 2 1 171.169 421.427 -5.39152e-13
ITEM: TIMESTEP
68000
ITEM: NUMBER OF ATOMS
5
ITEM: BOX BOUNDS pp pp pp
-1.5625000000000000e+03 1.5625000000000000e+03
-1.5625000000000000e+03 1.5625000000000000e+03
-5.0000000000000003e-02 5.0000000000000003e-02
ITEM: ATOMS id type mol x y z
2 2 1 170.422 409.843 4.76494e-13
3 2 1 164.546 414.381 3.82944e-13
1 1 1 169.753 415.05 0
5 2 1 174.96 415.72 -3.82944e-13
4 2 1 169.083 420.257 -4.76494e-13
ITEM: TIMESTEP
69000
ITEM: NUMBER OF ATOMS
5
ITEM: BOX BOUNDS pp pp pp
-1.5625000000000000e+03 1.5625000000000000e+03
-1.5625000000000000e+03 1.5625000000000000e+03
-5.0000000000000003e-02 5.0000000000000003e-02
ITEM: ATOMS id type mol x y z
3 2 1 167.128 410.013 4.9602e-13
2 2 1 174.499 410.899 7.11098e-14
1 1 1 170.371 414.142 0
4 2 1 166.242 417.385 -7.11098e-14
5 2 1 173.614 418.271 -4.9602e-13
ITEM: TIMESTEP
70000
ITEM: NUMBER OF ATOMS
5
ITEM: BOX BOUNDS pp pp pp
-1.5625000000000000e+03 1.5625000000000000e+03
-1.5625000000000000e+03 1.5625000000000000e+03
-5.0000000000000003e-02 5.0000000000000003e-02
ITEM: ATOMS id type mol x y z
3 2 1 165.285 410.365 4.71539e-13
1 1 1 168.875 414.195 0
2 2 1 172.705 410.604 -2.56462e-14
4 2 1 165.045 417.786 2.56462e-14
5 2 1 172.466 418.025 -4.71539e-13
ITEM: TIMESTEP
71000
ITEM: NUMBER OF ATOMS
5
ITEM: BOX BOUNDS pp pp pp
-1.5625000000000000e+03 1.5625000000000000e+03
-1.5625000000000000e+03 1.5625000000000000e+03
-5.0000000000000003e-02 5.0000000000000003e-02
ITEM: ATOMS id type mol x y z
3 2 1 166.639 407.13 2.4985e-13
1 1 1 166.449 412.376 0
2 2 1 171.696 412.566 -2.94931e-13
4 2 1 161.203 412.187 2.94931e-13
5 2 1 166.26 417.623 -2.4985e-13
ITEM: TIMESTEP
72000
ITEM: NUMBER OF ATOMS
5
ITEM: BOX BOUNDS pp pp pp
-1.5625000000000000e+03 1.5625000000000000e+03
-1.5625000000000000e+03 1.5625000000000000e+03
-5.0000000000000003e-02 5.0000000000000003e-02
ITEM: ATOMS id type mol x y z
3 2 1 162.697 407.082 -2.64093e-13
4 2 1 157.567 412.45 2.87645e-13
1 1 1 162.816 412.331 0
2 2 1 168.065 412.212 -2.87645e-13
5 2 1 162.935 417.579 2.64093e-13
ITEM: TIMESTEP
73000
ITEM: NUMBER OF ATOMS
5
ITEM: BOX BOUNDS pp pp pp
-1.5625000000000000e+03 1.5625000000000000e+03
-1.5625000000000000e+03 1.5625000000000000e+03
-5.0000000000000003e-02 5.0000000000000003e-02
ITEM: ATOMS id type mol x y z
3 2 1 161.923 407.992 -7.38529e-13
4 2 1 156.237 412.766 1.38139e-13
1 1 1 161.467 413.222 0
2 2 1 166.697 413.678 -1.38139e-13
5 2 1 161.011 418.452 7.38529e-13
ITEM: TIMESTEP
74000
ITEM: NUMBER OF ATOMS
5
ITEM: BOX BOUNDS pp pp pp
-1.5625000000000000e+03 1.5625000000000000e+03
-1.5625000000000000e+03 1.5625000000000000e+03
-5.0000000000000003e-02 5.0000000000000003e-02
ITEM: ATOMS id type mol x y z
3 2 1 165.083 407.861 -1.2112e-12
4 2 1 158.54 411.369 4.07716e-13
1 1 1 163.565 412.887 0
2 2 1 168.591 414.405 -4.07716e-13