fix fLANG all langevin 1.0 1.0 1.0 100
neigh_modify exclude molecule/intra all
fix rigidNVE linked_vesicle rigid/nve molecule
  1 rigid bodies with 5 atoms
fix NVE synapsin nve 1.0 1.0 1.0

    ##======================================##
    ## Output
    ##======================================##

thermo 1000
thermo_style custom step temp press etotal epair
thermo_modify flush yes
timestep 0.01

    ##======================================##
    ## Equilibration before output
    ##======================================##


    ##======================================##
    ## Run with output
    ##======================================##

fix enforce_2d all enforce2d
dump 2 all custom 1000 Results_eps_attr2_eps_rep1_eps_rep_weak0_range2_attr_with_repFalse_n_synapsin600_n_vesicles1/Movie_2d_eps_attr2_eps_rep1_eps_rep_weak0_range2_attr_with_repFalse_n_synapsin600_n_vesicles1.xyz id type mol x y z
run 1000000
Generated 0 of 3 mixed pair_coeff terms from geometric mixing rule
Neighbor list info ...
  update every 1 steps, delay 1 steps, check yes
  max neighbors/atom: 2000, page size: 100000
  master list distance cutoff = 11.52462
  ghost atom cutoff = 11.52462
  binsize = 5.7623102, bins = 55 55 1
  1 neighbor lists, perpetual/occasional/extra = 1 0 0
  (1) pair cosine/squared, perpetual
      attributes: half, newton on
      pair build: half/bin/newton
      stencil: half/bin/2d
      bin: standard
Per MPI rank memory allocation (min/avg/max) = 8.538 | 8.538 | 8.538 Mbytes
   Step          Temp          Press          TotEng         E_pair    
         0   0.99605013    -0.012465183    0.98864149     0            
      1000   0.9796406      0.006641718    0.96904823    -0.0033057851 
      2000   1.0301079      0.0062801407   1.0215322     -0.00091382295
      3000   1.0703171      0.0057292116   1.0612378     -0.0011182648 
      4000   0.97154471     0.0055552585   0.96431835     0            
      5000   0.99479994     0.0054624217   0.98534531    -0.0020552906 
      6000   1.002672       0.0069060183   0.99198991    -0.0032242059 
      7000   0.94815382     0.0053471659   0.9380994     -0.0030020364 
      8000   1.0066087      0.0058059053   0.9985616     -0.00055991578
      9000   0.96310799     0.0059635427   0.9536426     -0.0023017775 
     10000   0.95307525     0.004480259    0.94478272    -0.00120354   
     11000   1.027031       0.0063340556   1.0145863     -0.0048056269 
     12000   1.003166       0.0060665356   0.99053477    -0.0051696245 
     13000   0.99769018     0.0056560477   0.98259425    -0.0076750933 
     14000   0.97322603     0.0061285515   0.95477269    -0.011214466  
     15000   1.0013657      0.0056729077   0.990123      -0.0037945007 
     16000   0.94091134     0.0062848894   0.93209629    -0.0018165348 
     17000   1.0761493      0.0065356044   1.0649887     -0.0031561618 
     18000   0.90067427     0.0051399592   0.89314716    -0.00082788076
     19000   0.93929941     0.0064854136   0.93109267    -0.0012202148 
     20000   1.0521902      0.0060477576   1.0346496     -0.0097143622 
     21000   0.93030247     0.0059571117   0.92286813    -0.00051472777
     22000   0.95745134     0.0057113973   0.94449745    -0.0058323501 
     23000   0.98819832     0.0056465483   0.97618475    -0.0046633304 
     24000   0.93634536     0.0072294362   0.92786028    -0.0015205318 
     25000   1.0391265      0.0061796219   1.0290227     -0.002374746  
     26000   0.94534268     0.0067198304   0.93513915    -0.0031720518 
     27000   1.0372607      0.0062402587   1.0248601     -0.0046854372 
     28000   1.0135835      0.0060543361   1.0060316     -1.2863492e-05
     29000   1.0178245      0.0065141739   1.0064612     -0.003792676  
     30000   1.018702       0.0071361089   1.0078191     -0.0033057851 
     31000   1.0149888      0.0052627254   1.0062328     -0.0012064897 
     32000   1.0744474      0.0069676184   1.0618697     -0.0045860026 
     33000   0.98959909     0.0062581389   0.98223843     0            
     34000   0.98963092     0.006607545    0.98227003     0            
     35000   1.0677477      0.006619663    1.0567453     -0.0030605292 
     36000   0.94779727     0.0068453866   0.9365201     -0.0042274424 
     37000   1.0135883      0.0057418236   1.0069388      0.00088966021
     38000   0.99584037     0.0059043498   0.98362527    -0.0048080191 
     39000   1.0088118      0.0059714102   0.99835076    -0.0029575188 
     40000   1.041135       0.0068566639   1.0330782     -0.00031279794
     41000   1.0457656      0.0068772198   1.0378675     -0.00011971106
     42000   0.90859847     0.0066156853   0.89589846    -0.0059418398 
     43000   0.96248137     0.0057298973   0.95125609    -0.0040663249 
     44000   1.0455922      0.0061332147   1.0315005     -0.0063145195 
     45000   1.0851014      0.0062687043   1.074441      -0.002589431  
     46000   0.95310207     0.0069224432   0.94335615    -0.002656731  
     47000   0.98288117     0.0062290699   0.97363233    -0.0019381509 
     48000   0.98129153     0.0057667721   0.96836763    -0.0056250413 
     49000   1.0105857      0.006433337    0.99779568    -0.0052732801 
     50000   0.92943476     0.0060127088   0.91192322    -0.01059839   
     51000   1.0287119      0.00621786     1.0172521     -0.0038081663 
     52000   0.93535628     0.0055626879   0.9271122     -0.0012868859 
     53000   1.0147476      0.006691627    1.0018517     -0.0053481294 
     54000   1.0255804      0.0057024925   1.0039002     -0.014051904  
     55000   0.98416517     0.0073139781   0.97706547     0.00022054279
     56000   0.948653       0.0058482911   0.93329793    -0.0082989712 
     57000   1.0161065      0.0061072976   1.008422      -0.00012671457
     58000   0.92951302     0.0060029042   0.91820717    -0.0043921189 
     59000   1.0341014      0.0063167994   1.0222871     -0.0041226613 
     60000   0.96922935     0.0057556902   0.95116616    -0.010854048  
     61000   0.97961752     0.0064657964   0.96515888    -0.0071722264 
     62000   0.9803794      0.0065127319   0.96502214    -0.0080651839 
     63000   0.95315658     0.0066299817   0.93909475    -0.0069722318 
     64000   1.0256428      0.0063091755   1.0119766     -0.0060374783 
     65000   1.0258344      0.0067622217   1.010805      -0.0073993049 
     66000   0.95599535     0.0062467655   0.94804286    -0.00084178264
     67000   1.0394779      0.0049877889   1.0267859     -0.0049603363 
     68000   0.94600813     0.0056299583   0.93550306    -0.003468652  
     69000   0.97219961     0.0065776045   0.96049025    -0.0044781266 
     70000   0.99347908     0.0064381683   0.98193778    -0.0041517781 
     71000   0.98031677     0.0058911109   0.97070901    -0.0023161503 
     72000   1.0436646      0.0067416094   1.0261016     -0.0098001995 
     73000   1.0410426      0.0069662579   1.0302527     -0.0030466544 
     74000   0.98406535     0.0048312769   0.96826509    -0.008480767  
     75000   0.94886633     0.0060820945   0.93192655    -0.0098820919 
     76000   1.0239462      0.0060063289   1.010421      -0.0059090634 
     77000   0.95435364     0.0056781536   0.94328235    -0.0039727923 
     78000   1.0073899      0.0066136661   0.99507718    -0.0048197258 
     79000   0.97287418     0.0061266552   0.95957198    -0.0060659493 
     80000   1.038422       0.0057463848   1.0260344     -0.0046638598 
     81000   0.95466932     0.0051379343   0.94756848     0            
     82000   0.97324791     0.006015902    0.96428647    -0.0017224011 
     83000   0.97372295     0.0058325133   0.96648038     0            
     84000   1.039156       0.0065600711   1.0246855     -0.0067412466 
     85000   0.94477515     0.0055925807   0.93155695    -0.00619095   
     86000   0.91688726     0.0056572862   0.90685693    -0.0032105063 
     87000   0.95667075     0.0062434252   0.94668251    -0.0028725136 
     88000   1.003624       0.0074582397   0.99032984    -0.0058291818 
     89000   1.0141351      0.0060618417   1.0001568     -0.0064351324 
     90000   0.975223       0.0059372976   0.9647769     -0.0031923747 
     91000   1.0262469      0.0053980264   1.0159615     -0.0026521523 
     92000   1.0387755      0.0067609193   1.0283442     -0.0027048498 
     93000   0.98571071     0.0062867097   0.97745803    -0.00092094837
     94000   1.0122011      0.0064585586   1.0015174     -0.0031549899 
     95000   1.0191604      0.0064880406   1.009313      -0.0022668026 
     96000   0.98092824     0.005312042    0.96698334    -0.006648735  
     97000   1.0099336      0.0067947207   1.0004252     -0.0019964999 
     98000   1.00553        0.0064390052   0.99224801    -0.0058028856 
     99000   0.99969821     0.0063790987   0.99061677    -0.001645671  
    100000   1.012495       0.0061984325   1.0015822     -0.0033818528 
    101000   1.0165423      0.0063790469   0.99983018    -0.0091511    
    102000   1.0639351      0.0069926717   1.0465548     -0.0094667126 
    103000   0.97188453     0.0059675205   0.95625607    -0.0083995646 
    104000   0.97505077     0.0071809608   0.95960463    -0.0081936903 
    105000   1.0055911      0.0063997525   0.98886469    -0.0092468047 
    106000   1.0162776      0.0064209096   1.0086507     -6.7851597e-05
    107000   0.91826084     0.0054779316   0.90120366    -0.010227141  
    108000   0.94223993     0.0065599471   0.92761086    -0.0076206768 
    109000   0.9701908      0.0063573475   0.96285378    -0.00012072333
    110000   1.0162708      0.0069117407   1.0087568      4.5070035e-05
    111000   0.99324341     0.0064612621   0.97959258    -0.0062630725 
    112000   0.97559755     0.0053150148   0.95966887    -0.0086721695 
    113000   1.0238467      0.0060077404   1.0109729     -0.0052584388 
    114000   0.98819821     0.0051817813   0.974246      -0.0066019799 
    115000   1.0364965      0.0061596431   1.0255324     -0.0032546364 
    116000   1.0207264      0.0077168987   1.0122777     -0.00085646655
    117000   1.0271905      0.0066374028   1.0161541     -0.0033961391 
    118000   0.9936136      0.0061750486   0.98090917    -0.0053139204 
    119000   1.0039419      0.0065442108   0.99654042     6.5823487e-05
    120000   1.0167958      0.0063070134   1.0059271     -0.0033057851 
    121000   1.019008       0.0060544533   1.0087301     -0.002698529  
    122000   1.0677945      0.0070541491   1.0549263     -0.0049259372 
    123000   1.0430219      0.0068834496   1.0319647     -0.0032992123 
    124000   0.97501598     0.0055816676   0.96448624    -0.003277556  
    125000   0.96844034     0.0055841108   0.96109663    -0.00014043572
    126000   1.0343492      0.0068679111   1.0209489     -0.0057068097 
    127000   1.014119       0.0072296032   1.0033435     -0.0032324642 
    128000   0.98457314     0.0055188209   0.97440171    -0.0028481588 
    129000   0.97959488     0.0060265493   0.96991293    -0.0023957084 
    130000   1.010293       0.0062440162   1.0027669     -1.1505897e-05
    131000   1.0868345      0.0064693139   1.0787506      0            
    132000   0.97666771     0.0059409445   0.96940324     0            
    133000   0.99583474     0.0057202155   0.98842771     0            
    134000   1.0063329      0.0057790692   0.99749534    -0.001352439  
    135000   1.0946978      0.0068589664   1.0865554      0            
    136000   0.97586852     0.0059959162   0.96532672    -0.0032832726 
    137000   1.0313442      0.0069192668   1.0176895     -0.0059835776 
    138000   0.9987523      0.0062666842   0.98531244    -0.0060111271 
    139000   0.99926992     0.0069247308   0.98922464    -0.0026126974 
    140000   1.0301732      0.0056194501   1.0225108      0            
    141000   0.97994028     0.0054599338   0.96935909    -0.003292376  
    142000   1.0032641      0.0064347862   0.99775344     0.0019516259 
    143000   1.0592688      0.0057047923   1.0513899      0            
    144000   1.0103784      0.0062115622   0.9999037     -0.0029594832 
    145000   0.99501597     0.0063903751   0.98526065    -0.0023543691 
    146000   0.93887142     0.0060726735   0.92950065    -0.002387428  
    147000   0.96187955     0.006309168    0.95244193    -0.0022831427 
    148000   0.94318711     0.0057743872   0.93543992    -0.00073174977
    149000   0.99450775     0.0053950232   0.98677679    -0.00033379894
    150000   0.9409876      0.005810212    0.93398852     0            
    151000   1.0214143      0.00621485     1.0092978     -0.0045191972 
    152000   1.0675124      0.0061376839   1.0522903     -0.0072819448 
    153000   0.95775857     0.0051043674   0.94895775    -0.0016769946 
    154000   1.003577       0.0063626314   0.98658696    -0.0095254485 
    155000   0.92264549     0.0049410806   0.91578284     0            
    156000   1.0369006      0.0060068973   1.0291881      0            
    157000   1.0305651      0.0065312465   1.0228997      0            
    158000   1.0554406      0.0067069042   1.0411464     -0.0064438423 
    159000   0.92969359     0.0061363691   0.91900629    -0.0037722282 
    160000   1.0369568      0.0060330507   1.0274041     -0.0018398762 
    161000   0.99098933     0.0069375223   0.98041666    -0.0032016712 
    162000   0.95712452     0.0062714013   0.94526721    -0.0047382052 
    163000   0.94510136     0.0049504543   0.93624016    -0.0018315185 
    164000   1.0170368      0.0068968413   1.0074601     -0.0020119414 
    165000   0.97311938     0.0065242098   0.96392584    -0.0019554694 
    166000   0.97919715     0.0060496032   0.96884702    -0.0030668386 
    167000   0.98544383     0.004878525    0.97083631    -0.0072777809 
    168000   1.0869292      0.0066925549   1.0737383     -0.0051063064 
    169000   0.95298096     0.0056109356   0.94403128    -0.0018613931 
    170000   0.98015273     0.0064791702   0.96962965    -0.0032326914 
    171000   0.98278557     0.0063557471   0.9754756      0            
    172000   1.0489272      0.0051305243   1.0411253      0            
    173000   1.0076539      0.0073154005   1.000159       0            
    174000   1.0230793      0.0063983169   1.0154696      0            
    175000   0.93516473     0.0051426327   0.92809626    -0.00011269858
    176000   1.0045509      0.005427006    0.997079       0            
    177000   1.0333797      0.0069102537   1.0256934      0            
    178000   0.96853502     0.0058349856   0.96133104     0            
    179000   1.027984       0.0054429195   1.0173535     -0.0029843965 
    180000   0.98737668     0.0061190001   0.97674435    -0.0032882057 
    181000   1.0382782      0.0071033671   1.0305554      0            
    182000   1.0870436      0.0061958864   1.07654       -0.0024181544 
    183000   1.0071939      0.0064921954   0.99771741    -0.0019849788 
    184000   1.019658       0.0056358384   1.0110936     -0.00098014834
    185000   1.0535808      0.0074856197   1.0426269     -0.0031174037 
    186000   0.98316175     0.0063355425   0.97276834    -0.0030806302 
    187000   1.0059469      0.0061554705   0.99521165    -0.0032529958 
    188000   1.0425857      0.0070544131   1.0319495     -0.0028814435 
    189000   1.0119905      0.0061327439   1.0044346     -2.8689067e-05
    190000   1.0202228      0.0072198125   1.0093286     -0.0033057851 
    191000   1.0156723      0.0064018207   1.0081177      0            
    192000   1.0492439      0.0064999593   1.0414396      0            
    193000   1.0131133      0.0065632492   1.0061041      0.00052636561
    194000   0.98619441     0.0056032262   0.97607692    -0.0027821602 
    195000   1.0004654      0.0062333552   0.99195665    -0.0010672567 
    196000   1.038874       0.0062086757   1.0311469      0            
    197000   1.0477405      0.0065014889   1.0405507      0.00060328109
    198000   1.0720848      0.0068325444   1.0641106      0            
    199000   1.0297405      0.0066262743   1.0220814      8.0949487e-08
    200000   0.94180634     0.0044395827   0.93480117     0            
    201000   1.0085237      0.0067101005   1.0010223      0            
    202000   1.0020258      0.006546028    0.99457274     0            
    203000   1.0070448      0.0050378552   0.99973231     0.000177894  
    204000   1.0187767      0.0061070652   1.011199       0            
    205000   1.041746       0.0055984059   1.0339975      0            
    206000   0.91497649     0.0069670417   0.90906389     0.00089301193
    207000   1.0025052      0.0052648693   0.99183808    -0.0032104366 
    208000   1.0024207      0.0066709359   0.9949647      0            
    209000   1.0556241      0.0061439297   1.0477723      0            
    210000   1.0000618      0.0065993967   0.99157559    -0.0010477491 
    211000   0.98788354     0.0055667227   0.97745291    -0.0030827423 
    212000   1.0149408      0.0063077499   1.0048404     -0.0025512841 
    213000   1.0009233      0.007141462    0.9931287     -0.00034969743
    214000   1.0279169      0.0066066108   1.0170212     -0.0032499677 
    215000   0.9997497      0.0068124026   0.98686077    -0.0054527723 
    216000   1.031363       0.0053838037   1.0233173     -0.00037434905
    217000   0.98587744     0.0059658214   0.97177567    -0.0067687951 
    218000   1.0458938      0.0049779124   1.0360373     -0.0020771042 
    219000   1.0822566      0.0069824546   1.0717195     -0.0024872882 
    220000   0.91337286     0.0054923983   0.90347195    -0.0031072324 
    221000   1.0120514      0.0066073602   1.0043063     -0.00021744886
    222000   1.0024299      0.0056540334   0.99102547    -0.0039483205 
    223000   0.97459265     0.006128463    0.96380884    -0.0035347777 
    224000   0.98002987     0.005626532    0.97274039     0            
    225000   1.0133309      0.0057006931   1.0042433     -0.0015505196 
    226000   1.0178808      0.0061648245   1.0065508     -0.0037589641 
    227000   0.92721963     0.0051911123   0.91737943    -0.0029435265 
    228000   1.0027771      0.0055909997   0.98543764    -0.0098807434 
    229000   0.97315335     0.0065266309   0.96369134    -0.0022236826 
    230000   1.0386069      0.0070609576   1.0254843     -0.0053974104 
    231000   0.99579271     0.0062754671   0.98282494    -0.0055610428 
    232000   1.0000304      0.0054486439   0.9898893     -0.0027028434 
    233000   1.0486013      0.0070650542   1.0366508     -0.004150988  
    234000   1.0236418      0.0062784503   1.0116508     -0.0043771916 
    235000   1.0474938      0.0065229325   1.0363911     -0.0033114122 
    236000   1.0567406      0.0064074074   1.0475258     -0.0013547973 
    237000   0.99766215     0.005536345    0.98440576    -0.0058357636 
    238000   0.997346       0.0064834663   0.98911216    -0.00081556378
    239000   1.0068638      0.0061443659   0.99770828    -0.0016664156 
    240000   0.96542847     0.0058945985   0.95626531    -0.0019822875 
    241000   1.001716       0.0068252932   0.99120954    -0.0030556609 
    242000   0.94647628     0.0058980951   0.9361341     -0.0033022774 
    243000   1.0319142      0.0060725111   1.0242289     -9.8900934e-06
    244000   0.97671018     0.0068136907   0.96615383    -0.0032915698 
    245000   0.95412556     0.0054238675   0.94702876     0            
    246000   1.0215297      0.0059964708   1.0090739     -0.0048576839 
    247000   0.98685232     0.0061745212   0.97439787    -0.0051142176 
    248000   0.97158934     0.0059968527   0.96225551    -0.0021071325 
    249000   0.95248579     0.0056123837   0.94221331    -0.0031878815 
    250000   1.0520248      0.0067284411   1.0372662     -0.0069335727 
    251000   1.0158754      0.0068798374   1.0062028     -0.0021164307 
    252000   0.93058853     0.0063318687   0.91600773    -0.007659062  
    253000   1.018957       0.0061587423   0.99781013    -0.013567811  
    254000   1.0019258      0.0052600683   0.98450637    -0.0099670605 
    255000   1.0560916      0.0068793834   1.0381906     -0.010045747  
    256000   1.0033802      0.0076591727   0.99401537    -0.0019016487 
    257000   0.96879319     0.0065532153   0.94778626    -0.013801032  
    258000   1.0354919      0.0071434624   1.0193286     -0.0084612958 
    259000   1.0346482      0.0070848619   1.0225327     -0.0044197434 
    260000   0.93820269     0.005457425    0.9225602     -0.0086641232 
    261000   1.036429       0.0059626435   1.0169552     -0.011764787  
    262000   0.93990995     0.0052762564   0.92749951    -0.0054193716 
    263000   1.0262398      0.0061477345   1.0069848     -0.011621895  
    264000   0.93158659     0.0054816675   0.91670023    -0.0079571992 
    265000   1.0032945      0.0068450977   0.98407004    -0.011761964  
    266000   0.98700481     0.0065239333   0.97517315    -0.0044903045 
    267000   0.99689843     0.0054724959   0.98243322    -0.0070502629 
    268000   1.022811       0.0065777996   1.0079878     -0.0072155618 
    269000   1.0363754      0.0062242746   1.0215717     -0.0070951659 
    270000   1.0420589      0.0060411251   1.0323398     -0.0019682141 
    271000   1.0180266      0.0062114432   1.0108481      0.00039354709
    272000   1.006457       0.0068146232   0.9898088     -0.0091622057 
    273000   1.0209096      0.0069361921   1.0046354     -0.0086806747 
    274000   1.020213       0.0075029169   0.99962609    -0.012998567  
    275000   0.93337988     0.0055452372   0.92307768    -0.0033597075 
    276000   1.0209401      0.0071056587   1.00803       -0.0053163373 
    277000   1.0435414      0.0066095527   1.0292623     -0.0065171482 
    278000   0.96148589     0.0055392145   0.94833887    -0.0059954809 
    279000   0.95989291     0.0056257826   0.94755891    -0.0051943017 
    280000   1.1009229      0.0066490951   1.0892051     -0.0035291484 
    281000   1.0483878      0.0060987227   1.0334969     -0.0070929506 
    282000   1.0567473      0.0060344263   1.0416355     -0.0072517334 
    283000   0.98210299     0.0074584057   0.96934585    -0.0054522442 
    284000   0.95716488     0.0059079671   0.94172997    -0.0083154994 
    285000   0.98146722     0.0067834294   0.972313      -0.0018540553 
    286000   0.92367688     0.0061300248   0.91234055    -0.0044660041 
    287000   0.99789829     0.0064930382   0.98603328    -0.0044426299 
    288000   0.93621583     0.0065694591   0.91910657    -0.010145663  
    289000   1.0226065      0.0054414669   1.0054921     -0.0095082385 
    290000   1.0322773      0.0064539731   1.0198062     -0.0047930761 
    291000   1.027041       0.0068640489   1.0160842     -0.0033176344 
    292000   1.0863543      0.006464577    1.0754153     -0.0028586464 
    293000   0.96937949     0.0062034759   0.95421154    -0.0079576922 
    294000   1.0134153      0.0062404429   1.0031531     -0.0027244848 
    295000   0.97410673     0.0068758543   0.95760601    -0.0092553024 
    296000   0.95053853     0.0051563391   0.932644      -0.010824406  
    297000   0.95819422     0.0058994677   0.94126887    -0.0097982912 
    298000   1.0596825      0.0053815132   1.0423852     -0.0094154052 
    299000   1.0614433      0.0078236637   1.0402507     -0.013297545  
    300000   0.95107186     0.005577767    0.93590105    -0.0080967209 
    301000   1.0205053      0.0064531848   1.0041339     -0.0087808669 
    302000   1.0325448      0.0068472421   1.0180811     -0.0067836574 
    303000   0.92803669     0.005828299    0.91811954    -0.0030143955 
    304000   0.97057372     0.0059003656   0.95534696    -0.0080076156 
    305000   0.95048589     0.0060449084   0.93317341    -0.010242756  
    306000   0.91949331     0.0059301136   0.90416425    -0.0084898483 
    307000   0.9637091      0.0063784735   0.95194939    -0.0045916273 
    308000   0.98023252     0.006218314    0.96837143    -0.0045700977 
    309000   0.96929549     0.00670395     0.95563672    -0.0064491372 
    310000   0.97080573     0.0064425421   0.95393954    -0.0096453253 
    311000   0.97874861     0.0065813552   0.96876354    -0.0027051196 
    312000   0.98037127     0.0047750756   0.96945718    -0.003622067  
    313000   0.93367091     0.0053633619   0.92136119    -0.0053650569 
    314000   1.1102897      0.0063478599   1.1009476     -0.0010836749 
    315000   1.0741001      0.0075541437   1.060688      -0.0054229037 
    316000   1.0376592      0.0065740414   1.0284353     -0.0015057716 
    317000   0.99999655     0.0063400004   0.98695654    -0.0056020167 
    318000   0.99531613     0.006136121    0.98339761    -0.0045153446 
    319000   0.95822388     0.0060387205   0.94432667    -0.0067699323 
    320000   0.97106443     0.0066713365   0.95770848    -0.0061331584 
    321000   1.070698       0.0055317627   1.0476049     -0.015129178  
    322000   0.99386801     0.0071708394   0.98377912    -0.0026964853 
    323000   0.99993034     0.0063454276   0.98592972    -0.0065631174 
    324000   1.0075322      0.0054750818   0.99779687    -0.002241272  
    325000   0.95532324     0.0062441443   0.94381571    -0.0044018196 
    326000   1.0549064      0.0064299468   1.0375063     -0.0095536727 
    327000   0.95983977     0.0055725868   0.94720071    -0.0054997586 
    328000   0.99004522     0.0068604761   0.98409015     0.0014089017 
    329000   1.0399878      0.0063893247   1.026367      -0.0058854228 
    330000   1.0244684      0.0072491124   1.0128698     -0.0039786286 
    331000   1.0062159      0.0054276169   0.99637303    -0.0023586661 
    332000   0.99426423     0.0061562952   0.98426872    -0.0026001518 
    333000   1.0779094      0.0077865872   1.0687605     -0.0011314287 
    334000   1.0492239      0.0064285709   1.038764      -0.0026557547 
    335000   0.98022713     0.0057459844   0.9680101     -0.0049260753 
    336000   0.93976334     0.0063393673   0.93231632    -0.00045704489
    337000   0.95240654     0.0053379665   0.93867777    -0.0066447585 
    338000   0.99008886     0.0059065132   0.97623593    -0.006488632  
    339000   1.0095879      0.0063697087   0.99857794    -0.0035006309 
    340000   1.0388352      0.0067333567   1.0245947     -0.0065136292 
    341000   1.0531598      0.0065213487   1.0420025     -0.0033238726 
    342000   0.97034532     0.0054241286   0.96009478    -0.0030330926 
    343000   0.98372399     0.0066545951   0.97453485    -0.0018721806 
    344000   1.0083507      0.005082348    0.99969286    -0.0011577228 
    345000   1.0044185      0.00624101     0.99586022    -0.0010873687 
    346000   1.087226       0.0075246488   1.0768654     -0.002273783  
    347000   0.95073221     0.0057196512   0.93718895    -0.0064716937 
    348000   0.99906964     0.0073194818   0.98824194    -0.0033966069 
    349000   0.9894909      0.0057353787   0.97594313    -0.0061879199 
    350000   1.0322567      0.0059161089   1.0215425     -0.0030362649 
    351000   0.99902684     0.0066974849   0.98857767    -0.0030183858 
    352000   0.96748669     0.0062026725   0.96029051     0            
    353000   0.97467352     0.0061570558   0.9659905     -0.0014333771 
    354000   1.0737534      0.0072916609   1.0630105     -0.0027562947 
    355000   1.0143397      0.0066866817   1.006795       0            
    356000   1.0357927      0.0060890239   1.0261776     -0.0019108759 
    357000   0.97755901     0.0059461679   0.96727308    -0.0030148297 
    358000   0.9873005      0.0059732941   0.97995694     0            
    359000   0.97295845     0.0058492744   0.96321286    -0.0025087109 
    360000   0.98512905     0.0051430494   0.97767148    -0.00013015881
    361000   0.96408849     0.0064546321   0.95468506    -0.0022325166 
    362000   0.96243239     0.0066437587   0.95142347    -0.0038503359 
    363000   0.98179713     0.0051819786   0.96942296    -0.0050715552 
    364000   0.95077639     0.0070451565   0.93570908    -0.0079954241 
    365000   1.0628398      0.0071139862   1.0476722     -0.0072621901 
    366000   1.0103456      0.0061126199   0.99385928    -0.0089714032 
    367000   1.026044       0.0057646558   1.0104024     -0.0080099024 
    368000   0.9565862      0.0064559416   0.94616531    -0.0033057851 
    369000   1.0387866      0.0063042964   1.0218508     -0.0092093256 
    370000   1.0537559      0.0062392578   1.0385643     -0.0073537811 
    371000   1.0303661      0.0056838498   1.0148607     -0.0078415614 
    372000   0.97503311     0.0063131699   0.95898044    -0.0088003583 
    373000   0.98332947     0.0066992882   0.97130934    -0.0047061044 
    374000   0.91222016     0.0053183755   0.9021467     -0.0032883466 
    375000   1.0090128      0.0054080342   0.99820197    -0.0033057851 
    376000   0.99386107     0.0059161197   0.98646871     0            
    377000   0.98749859     0.0059906324   0.98015356     0            
    378000   1.0299124      0.0066334582   1.0213832     -0.00086865173
    379000   0.98729658     0.0067006364   0.98347811     0.0035250579 
    380000   1.0622158      0.006941623    1.0542572     -5.7844723e-05
    381000   0.97829565     0.0057716504   0.97490727     0.0038881998 
    382000   1.023521       0.0058993025   1.0136087     -0.0022993073 
    383000   0.98026358     0.0062459772   0.96656841    -0.0064039497 
    384000   0.98006472     0.0062408767   0.97225807    -0.00051690965
    385000   1.0668164      0.0075431284   1.0555756     -0.0033057851 
    386000   1.0001804      0.0057210634   0.98989176    -0.0028492814 
    387000   0.96519467     0.0068521283   0.95635391    -0.0016616271 
    388000   1.0174219      0.0060379142   1.0045134     -0.0053409701 
    389000   1.0756371      0.0064211833   1.0676365      0            
    390000   0.93887506     0.0058578059   0.9318917      0            
    391000   0.98332276     0.0069381058   0.97600847    -3.1820125e-07
    392000   0.98808211     0.0054550298   0.97810976    -0.0026229768 
    393000   1.0623922      0.006495216    1.0544901      0            
    394000   0.94153113     0.0056363303   0.93132557    -0.0032024343 
    395000   1.0172865      0.0068204819   1.0097199      0            
    396000   1.0556284      0.006773678    1.0477766      0            
    397000   0.97095115     0.0056673051   0.9637292      0            
    398000   0.99421187     0.0061188673   0.98681691     0            
    399000   1.0070632      0.006073291    0.99957261     0            
    400000   1.0115834      0.0057148526   1.0040413     -1.7947229e-05
    401000   1.0739001      0.0067286655   1.0593546     -0.0065577976 
    402000   1.0168422      0.0055896312   1.0089885     -0.00029042074
    403000   0.99332        0.0071195781   0.98262974    -0.0033019238 
    404000   0.91115505     0.0056668506   0.90319753    -0.0011803354 
    405000   0.98476919     0.005752767    0.97744446     0            
    406000   0.9356264      0.0046909858   0.92854677    -0.00012042755
    407000   0.99327867     0.0070337205   0.98589065     0            
    408000   0.95532166     0.0049658537   0.94584146    -0.0023744969 
    409000   1.0638568      0.0060701915   1.0537757     -0.0021681122 
    410000   1.0002763      0.0056236327   0.99283621     0            
    411000   1.0377252      0.0063627905   1.0272272     -0.0027793895 
    412000   1.0134443      0.0059905622   1.0032287     -0.0026775594 
    413000   0.97343537     0.0066884009   0.96179664    -0.0043982971 
    414000   1.0240045      0.0065120282   1.0129373     -0.0034506765 
    415000   0.97856851     0.0064070106   0.97032474    -0.00096516469
    416000   0.9653287      0.0059916277   0.95513697    -0.0030116002 
    417000   1.0238925      0.0066318622   1.0132381     -0.0030386896 
    418000   1.0077198      0.0057543128   0.99553971    -0.0046846353 
    419000   0.99035393     0.0058591283   0.98079452    -0.0021931347 
    420000   1.0052681      0.0070248614   0.99478774    -0.0030031685 
    421000   1.0233707      0.0055184681   1.012453      -0.0033057851 
    422000   1.0708555      0.0063701904   1.0595847     -0.0033057851 
    423000   1.0508503      0.0069885047   1.0392243     -0.0038097329 
    424000   1.0241486      0.0066358894   1.0120402     -0.004490731  
    425000   1.0009853      0.0074290925   0.99353993     0            
    426000   0.97861166     0.0058942693   0.97133323     4.9564605e-07
    427000   1.0221424      0.0065259105   1.0151357      0.00059600298
    428000   0.98970037     0.0059084487   0.98233896     0            
    429000   0.97602627     0.0056793126   0.96933929     0.00057271793
    430000   0.96587021     0.0054864887   0.95868605     0            
    431000   0.945814       0.0074241159   0.93877902     0            
    432000   1.0703791      0.0060417004   1.0574492     -0.0049684738 
    433000   1.0545575      0.0061552672   1.043217      -0.003496744  
    434000   1.0459402      0.005686429    1.0372752     -0.00088527802
    435000   0.97615913     0.0072121697   0.96886074    -3.7697562e-05
    436000   1.0189765      0.0065798003   1.0084602     -0.0029371286 
    437000   0.94234675     0.006416021    0.93058347    -0.0047540886 
    438000   0.95111333     0.00562474     0.93684081    -0.0071981207 
    439000   1.0036986      0.0057764407   0.99531982    -0.00091327707
    440000   0.95685844     0.0053969701   0.94741768    -0.0023236313 
    441000   0.97024669     0.006695292    0.95788957    -0.0051404029 
    442000   1.056597       0.0074671105   1.0439759     -0.004762159  
    443000   1.0226147      0.0056332929   1.0082477     -0.0067606951 
    444000   0.9852387      0.0058888512   0.97423337    -0.0036771058 
    445000   1.0775031      0.0060497014   1.0662946     -0.0031940419 
    446000   0.95048591     0.0056153232   0.94011039    -0.0033057851 
    447000   0.97623218     0.006842181    0.96409924    -0.0048717096 
    448000   1.0173155      0.0069425876   1.008117      -0.0016317844 
    449000   1.0498951      0.0064869076   1.036332      -0.0057539493 
    450000   0.96077524     0.0057609772   0.95187078    -0.001758202  
    451000   1.0002052      0.0058351344   0.99227893    -0.00048669039
    452000   0.96285026     0.0057910274   0.95296819    -0.0027203675 
    453000   0.97041802     0.0048403058   0.96194282    -0.0012572184 
    454000   0.99864243     0.0057726814   0.98858163    -0.0026328715 
    455000   0.99017164     0.0060855699   0.97517514    -0.0076315887 
    456000   0.99216177     0.0063634328   0.9820172     -0.0027648589 
    457000   1.0187045      0.0075306418   1.0108438     -0.00028358845
    458000   0.94728288     0.0058289425   0.93693525    -0.003301729  
    459000   0.97969933     0.0056763934   0.96898924    -0.0034230704 
    460000   1.0385253      0.0064957706   1.0241892     -0.0066115702 
    461000   1.1284036      0.0074926752   1.1127638     -0.0072466566 
    462000   1.1000515      0.0063478863   1.082552      -0.0093173545 
    463000   1.0179944      0.005902114    1.0072219     -0.0032006391 
    464000   1.03079        0.006182758    1.0227189     -0.00040404186
    465000   1.0478318      0.0062240633   1.0356668     -0.004371163  
    466000   0.94581054     0.0057538605   0.93604701    -0.002728576  
    467000   0.92377865     0.005387635    0.91618526    -0.00072231344
    468000   1.0209272      0.0072042973   1.0124309     -0.00090265001
    469000   0.97446818     0.0059627942   0.96458616    -0.0026339169 
    470000   0.97039476     0.0053591936   0.95998485    -0.0031920962 
    471000   1.013673       0.0065260484   1.0028275     -0.0033057851 
    472000   1.0231024      0.0061241896   1.0154926      0            
    473000   1.0062234      0.0068604906   0.99867429    -6.482149e-05 
    474000   1.0513324      0.0066985553   1.0457939      0.0022812619 
    475000   1.0422889      0.0074367851   1.0323936     -0.0021427977 
    476000   1.0336038      0.0060052112   1.0259159      0            
    477000   1.0170277      0.0059204191   1.009463       0            
    478000   1.0149251      0.0061847918   1.005985      -0.0013910937 
    479000   0.91519606     0.0053321281   0.90422278    -0.0041660333 
    480000   1.0089237      0.0069934573   0.99296643    -0.0084528409 
    481000   0.96971469     0.005668809    0.95970331    -0.0027986252 
    482000   1.01731        0.0056762652   1.0012591     -0.0084842198 
    483000   1.0059627      0.0059054068   0.99282468    -0.0056556261 
    484000   0.91645108     0.0067504041   0.90701463    -0.0026198688 
    485000   1.0323969      0.0068766978   1.0247179      0            
    486000   0.95060427     0.0061579833   0.93559455    -0.0079391124 
    487000   0.89225027     0.0058267494   0.87621363    -0.0094000636 
    488000   0.97538722     0.0059282112   0.96213369    -0.0059985846 
    489000   0.99612497     0.0068112311   0.97984216    -0.0088736124 
    490000   0.95394301     0.0055117143   0.94064697    -0.0062005939 
    491000   1.0155563      0.0060201211   1.0017525     -0.0062500837 
    492000   0.96983836     0.0061425611   0.95820786    -0.0044168194 
    493000   1.0327654      0.0056594333   1.0188439     -0.0062397217 
    494000   0.97658248     0.0050427254   0.9661413     -0.0031773453 
    495000   1.0043746      0.0071409964   0.99251587    -0.004388213  
    496000   1.0135061      0.0057082865   1.0056589     -0.00030874038
    497000   0.95958428     0.0066204977   0.94975657    -0.0026903066 
    498000   1.0390974      0.0053059179   1.0229721     -0.0083964391 
    499000   0.98008069     0.0055058715   0.96696704    -0.0058237899 
    500000   1.0170471      0.0057904533   1.0053289     -0.0041534712 
    501000   1.0667519      0.006652943    1.0518883     -0.0069290622 
    502000   1.0338073      0.0059561634   1.0172658     -0.0088520728 
    503000   0.98555695     0.0055766621   0.97639609    -0.0018302713 
    504000   0.94371136     0.0060808235   0.93669202     0            
    505000   1.0009958      0.0061788353   0.99386447     0.00031408146
    506000   0.9530229      0.0062268192   0.94263161    -0.0033026913 
    507000   1.0184551      0.0060722355   1.0081698     -0.0027100425 
    508000   0.95389558     0.0059664449   0.94599276    -0.00080773291
    509000   0.98390212     0.0070064418   0.97335996    -0.0032238735 
    510000   0.98548721     0.0062140698   0.97815714     0            
    511000   0.98866574     0.0059291048   0.97528974    -0.0060222871 
    512000   0.98496986     0.0048133859   0.97383966    -0.0038039741 
    513000   0.96556191     0.0061362553   0.95245464    -0.0059254064 
    514000   1.0029552      0.0060211132   0.99260634    -0.0028888456 
    515000   1.1143293      0.0064215748   1.1015846     -0.0044563032 
    516000   1.0317487      0.0069968369   1.0225921     -0.0014824175 
    517000   1.0243909      0.0070520233   1.0101938     -0.0065777018 
    518000   0.94697        0.0058057578   0.93664562    -0.003280801  
    519000   1.0428633      0.0051808053   1.0247987     -0.010307783  
    520000   0.98932786     0.0063073191   0.9744777     -0.007491528  
    521000   0.96592818     0.0056766822   0.95207027    -0.0066733181 
    522000   1.0228864      0.0075327684   1.0090091     -0.0062690552 
    523000   0.99621776     0.0054263202   0.9787095     -0.010098373  
    524000   0.97881837     0.0061124273   0.96378703    -0.0077508681 
    525000   0.97395661     0.006490653    0.95326649    -0.013445807  
    526000   1.0089305      0.0065172579   0.98984122    -0.011584831  
    527000   0.97406504     0.0069072238   0.95673449    -0.01008543   
    528000   0.96196933     0.0062432109   0.94605176    -0.0087624261 
    529000   0.97681383     0.006114347    0.95601176    -0.013536515  
    530000   1.0173008      0.0069030925   0.99467221    -0.015061938  
    531000   1.0494821      0.0059663541   1.0356486     -0.006027458  
    532000   1.0257997      0.006819461    1.0131458     -0.0050239876 
    533000   0.94784421     0.0062612913   0.93007205    -0.010722084  
    534000   0.93500674     0.0058368846   0.91662941    -0.011422741  
    535000   0.97507824     0.006011615    0.96160263    -0.0062229559 
    536000   0.93108056     0.0055387975   0.92303253    -0.0011226413 
    537000   1.0291855      0.0061682859   1.0193981     -0.0021322928 
    538000   1.0679215      0.0058427721   1.052411      -0.0075673053 
    539000   1.0115821      0.0059018428   0.99896806    -0.0050898926 
    540000   0.97719639     0.005133199    0.96428719    -0.0056408018 
    541000   1.0047573      0.0054675188   0.98995968    -0.0073241797 
    542000   0.92994005     0.0052887666   0.91779664    -0.0052265069 
    543000   1.060405       0.0073288451   1.0486821     -0.003835673  
    544000   1.0069451      0.0057231568   0.99524929    -0.0042061779 
    545000   1.0112432      0.0060055445   1.0042238      0.00050220403
    546000   0.95904751     0.0058128943   0.9481397     -0.0037743968 
    547000   1.1160109      0.0072632027   1.1032056     -0.0045043353 
    548000   1.0976767      0.0071242846   1.0866233     -0.0028889009 
    549000   0.93307683     0.005546772    0.92283081    -0.0033057851 
    550000   1.0201555      0.0056757799   1.0112997     -0.0012679293 
    551000   1.0216642      0.007029718    1.0140345     -3.0513243e-05
    552000   1.0192838      0.0060415039   1.0076668     -0.0040355607 
    553000   0.9561452      0.005971461    0.94307919    -0.0059541855 
    554000   0.99295986     0.0057803826   0.97909357    -0.0064806359 
    555000   1.0724659      0.006328094    1.0562208     -0.0082681175 
    556000   1.0054914      0.0068931236   0.99761067    -0.00040183059
    557000   1.0236683      0.0058116456   1.0057328     -0.010321455  
    558000   0.96502394     0.0055724916   0.94941654    -0.0084295348 
    559000   0.96131755     0.0056140213   0.94476994    -0.0093973111 
    560000   1.0181441      0.0066463167   1.0038813     -0.0066897697 
    561000   0.94017549     0.0053816997   0.92368138    -0.0095010637 
    562000   0.96837738     0.0061816646   0.95819982    -0.0029747512 
    563000   1.0273866      0.0064649326   1.0176195     -0.002125379  
    564000   0.97173384     0.0052414951   0.95590675    -0.0085993173 
    565000   1.0509362      0.0064714926   1.0387857     -0.004333617  
    566000   0.99502956     0.006108655    0.98359765    -0.0040308624 
    567000   1.0568673      0.0061430228   1.0416775     -0.0073288948 
    568000   1.035365       0.0059848553   1.0243019     -0.0033619784 
    569000   0.99133967     0.0053769467   0.97246274    -0.011503326  
    570000   0.93732192     0.0058731844   0.9264272     -0.0039228982 
    571000   0.95018523     0.0057994671   0.93507602    -0.0080417175 
    572000   1.0193568      0.0061521782   1.0117748      0            
    573000   1.0144764      0.0055801404   1.0064323     -0.00049834127
    574000   1.0409512      0.0066038175   1.0302046     -0.0030040423 
    575000   0.96699478     0.0064957536   0.95414573    -0.0056565323 
    576000   1.0385052      0.0067854562   1.0272547     -0.0035260446 
    577000   0.93982753     0.0056862881   0.92841664    -0.0044204289 
    578000   1.0327052      0.00596078     1.0250239      0            
    579000   1.0269528      0.0065890288   1.0184578     -0.00085648165
    580000   1.0285026      0.0057273084   1.0209489      9.6349986e-05
    581000   0.96667792     0.0059369046   0.95168688    -0.0078008762 
    582000   1.0252336      0.0063926923   1.0136292     -0.0039787283 
    583000   0.99059219     0.0062809439   0.98232951    -0.00089463877
    584000   0.92931501     0.0056881394   0.92100016    -0.0014025914 
    585000   1.0623355      0.007575022    1.0519304     -0.0025034725 
    586000   1.0156976      0.0062184156   1.0004072     -0.0077356376 
    587000   0.95426439     0.0047166652   0.94277093    -0.0043956319 
    588000   0.93575419     0.0051048905   0.91898756    -0.0098064725 
    589000   0.9729206      0.0063400499   0.96196103    -0.003722972  
    590000   1.0627789      0.0060322919   1.0529059     -0.0019680577 
    591000   1.0245358      0.0064949796   1.0132969     -0.0036183734 
    592000   0.9950867      0.0061852919   0.98329334    -0.0043918907 
    593000   0.98952131     0.0049431918   0.97273412    -0.009427108  
    594000   0.99672279     0.0054463178   0.98738179    -0.001927354  
    595000   1.0089851      0.0058365412   0.99277841    -0.0087018474 
    596000   1.0614734      0.0066767676   1.0408239     -0.01275425   
    597000   0.99181804     0.0065101367   0.9809295     -0.0035113863 
    598000   0.96409907     0.0055424894   0.95574988    -0.0011782027 
    599000   0.99553453     0.0067905861   0.98083232    -0.0072974079 
    600000   1.0005697      0.0067904311   0.99312748     0            
    601000   1.0012194      0.0057346374   0.99377241     1.1197377e-07
    602000   0.99376978     0.0061441775   0.98637811    -2.7974953e-11
    603000   1.0209211      0.0064554453   1.0133274      0            
    604000   0.9514473      0.0050502445   0.94428469    -8.5734619e-05
    605000   0.97782383     0.0051356784   0.97069172     0.00014096033
    606000   1.0501425      0.0069390883   1.0423315      0            
    607000   0.94817456     0.0056975018   0.94112876     6.7408785e-06
    608000   1.0212501      0.005907487    1.0136541      0            
    609000   0.96928171     0.0059509136   0.96154144    -0.00053074495
    610000   0.99025136     0.0063840429   0.98117754    -0.0017083212 
    611000   1.0006316      0.0074063629   0.98985851    -0.0033303248 
    612000   0.96951722     0.0057250911   0.95826641    -0.0040395295 
    613000   1.0304924      0.005611717    1.0228276      0            
    614000   1.0186661      0.0062569766   1.0110892      0            
    615000   1.017115       0.005552948    1.0095497      0            
    616000   0.97755014     0.0065258496   0.97032683     4.7728094e-05
    617000   0.98947478     0.0064084357   0.98211506     0            
    618000   0.92426157     0.0056007876   0.9173869      0            
    619000   0.97716435     0.0061443369   0.96989619     0            
    620000   0.9910071      0.0057390929   0.98357545    -6.0518358e-05
    621000   1.0265186      0.0059404413   1.0157884     -0.0030948778 
    622000   0.98418377     0.0063398925   0.9768634      0            
    623000   1.0567433      0.0078199184   1.0457136     -0.003169617  
    624000   0.96306261     0.0051513988   0.95261219    -0.0032871387 
    625000   0.91317812     0.0053473134   0.90375824    -0.0026276416 
    626000   0.99976207     0.0066482652   0.99232583     0            
    627000   1.08924        0.0073240454   1.078699      -0.0024391474 
    628000   0.97865981     0.0059475003   0.97135266    -2.7863931e-05
    629000   0.9509495      0.0058695999   0.93778266    -0.0060936645 
    630000   0.99219782     0.0054974842   0.98097408    -0.0038437581 
    631000   0.97673086     0.0056925835   0.96040425    -0.009061671  
    632000   0.9628268      0.0060159927   0.94836277    -0.007302514  
    633000   0.98827853     0.0066164      0.97153963    -0.0093880737 
    634000   1.0584533      0.006007655    1.0476605     -0.0029200342 
    635000   1.0187146      0.0062338049   1.0094868     -0.0016505385 
    636000   0.96943716     0.0065176025   0.96222647     0            
    637000   0.95802709     0.0054239179   0.94859375    -0.0023075224 
    638000   1.0342345      0.0064773072   1.0220366     -0.0045052208 
    639000   1.013462       0.0059479257   1.0002757     -0.0056481513 
    640000   0.94360899     0.0053290324   0.93658747    -2.9393395e-06
    641000   0.99619229     0.0061545971   0.98520911    -0.0035734847 
    642000   0.96452824     0.0057647667   0.95736881     1.4751029e-05
    643000   0.98415968     0.0062043714   0.97683949     0            
    644000   1.0107773      0.0066444743   1.0032606      1.5234034e-06
    645000   0.99247976     0.006044803    0.98509768     0            
    646000   1.0215285      0.0058129959   1.0082071     -0.0057233261 
    647000   0.98484618     0.005911169    0.97453101    -0.0029898698 
    648000   0.99168232     0.0068476128   0.97881771    -0.0054884644 
    649000   1.0042829      0.007013529    0.99191306    -0.0048999209 
    650000   0.98286377     0.0055994158   0.9692612     -0.0062920054 
    651000   0.99839524     0.0063187459   0.99131038     0.00034121764
    652000   1.0332704      0.0064180126   1.0240512     -0.0015336319 
    653000   0.99889355     0.0067430023   0.98814747    -0.0033162852 
    654000   0.99961641     0.0058607829   0.99013178    -0.0020494625 
    655000   0.93246928     0.0059890731   0.92569731     0.00016375266
    656000   0.93915803     0.0053613829   0.92946557    -0.0027069816 
    657000   0.97611965     0.0058945751   0.9688595      2.4210138e-07
    658000   1.0359645      0.0058645571   1.022764      -0.0054949686 
    659000   1.016512       0.0057601963   1.0058214     -0.0031297886 
    660000   1.0048008      0.0065079925   0.99266272    -0.004664338  
    661000   1.0232658      0.0072411932   1.0022052     -0.013449512  
    662000   0.92055881     0.0049504597   0.90834892    -0.0053627575 
    663000   1.0065528      0.0060789788   0.99689423    -0.0021718361 
    664000   0.99966885     0.0062697171   0.98957386    -0.0026594393 
    665000   1.0364851      0.0070676715   1.0280852     -0.00069048883
    666000   0.93214011     0.0050313015   0.92038413    -0.0048226977 
    667000   1.0719307      0.0067203582   1.0548289     -0.0091287616 
    668000   0.95118079     0.0059561314   0.94412344     1.7546096e-05
    669000   1.0371037      0.0065024133   1.0226539     -0.0067358806 
    670000   1.0082382      0.0059992651   0.99226844    -0.0084704226 
    671000   0.97874072     0.0056916534   0.96853639    -0.0029244453 
    672000   1.0403423      0.0072296044   1.0304441     -0.0021600676 
    673000   1.0483734      0.0061507648   1.0380856     -0.0024899791 
    674000   0.9909296      0.0065915297   0.98011341    -0.0034456363 
    675000   1.0215814      0.0061011599   1.0112944     -0.0026884803 
    676000   0.94208684     0.0056069219   0.93299959    -0.0020799906 
    677000   1.0099203      0.00625685     0.99960235    -0.0028061495 
    678000   1.0244742      0.0064656746   1.014972      -0.0018820869 
    679000   1.0087436      0.0055551436   1.0003409     -0.00089971664
    680000   1.0192319      0.0051438794   1.0070598     -0.0045910081 
    681000   0.95925174     0.0058773046   0.94990268    -0.0022141296 
    682000   0.90099395     0.0055453222   0.89131976    -0.0029725796 
    683000   1.0044519      0.0064203652   0.99407793    -0.0029028199 
    684000   1.0465981      0.0063378008   1.0363699     -0.002443596  
    685000   0.97499758     0.0056672562   0.96038937    -0.0073561569 
    686000   0.93421316     0.0055010521   0.92578516    -0.0014793093 
    687000   0.96652457     0.0058294405   0.95589081    -0.0034447279 
    688000   1.0205668      0.0073116604   1.0070266     -0.0059491976 
    689000   1.0002747      0.0054809439   0.99283467     0            
    690000   1.0120569      0.0060590837   1.0045292      0            
    691000   0.97090649     0.0058326402   0.95818751    -0.0054973649 
    692000   1.0118018      0.0058318312   1.0005778     -0.0036981742 
    693000   1.0107396      0.0064367324   1.0010723     -0.0021494054 
    694000   0.98237927     0.0063851444   0.97507232     0            
    695000   0.92812416     0.0058614355   0.92122075     0            
    696000   1.0693328      0.0068789602   1.0613301     -4.8978582e-05
    697000   0.94718459     0.0059212185   0.94012158    -1.783961e-05 
    698000   0.93685488     0.0056556479   0.9276316     -0.0022549378 
    699000   1.0081268      0.0064376089   0.99879874    -0.0018296237 
    700000   0.99265304     0.0058862842   0.98518226    -8.7406776e-05
    701000   1.0370178      0.005918446    1.0293044      0            
    702000   1.0702455      0.0064728872   1.0605233     -0.0017616684 
    703000   1.0769562      0.0060859756   1.0659646     -0.0029810955 
    704000   1.0327023      0.0066034617   1.0197908     -0.0052303226 
    705000   1.0346015      0.0062461957   1.0198194     -0.0070867801 
    706000   1.003873       0.0072106492   0.995018      -0.0013881515 
    707000   1.0758699      0.006846289    1.0628372     -0.0050303523 
    708000   0.96769668     0.0063478454   0.95714786    -0.0033510754 
    709000   0.98865565     0.005757747    0.976838      -0.0044640125 
    710000   1.0395321      0.005913969    1.0294417     -0.0023582752 
    711000   1.0903073      0.0072609146   1.0696449     -0.012552688  
    712000   1.0041893      0.005895576    0.99080931    -0.0059108381 
    713000   1.095065       0.0066697356   1.086303      -0.00061679446
    714000   1.0287012      0.0062313558   1.0148552     -0.0061944954 
    715000   0.97174205     0.0055261053   0.96095375    -0.0035604683 
    716000   1.031789       0.0051722417   1.0181494     -0.0059652029 
    717000   1.0173118      0.0064186918   1.0046521     -0.0050928832 
    718000   1.0351425      0.0062172968   1.0269964     -0.00044670719
    719000   0.98383433     0.0060464933   0.97504554    -0.0014710212 
    720000   1.0321755      0.0057610259   1.0179683     -0.0065298775 
    721000   0.93320023     0.0049394421   0.91523672    -0.011022359  
    722000   1.0444796      0.0074497844   1.0311738     -0.0055369008 
    723000   0.92890039     0.0053162748   0.91669777    -0.0052934504 
    724000   0.99940775     0.0062001202   0.98348999    -0.0084841533 
    725000   0.97801065     0.0064279708   0.96839328    -0.0023429028 
    726000   1.0163548      0.006132755    1.0064997     -0.0022953823 
    727000   1.0158125      0.005719213    1.0058426     -0.002414254  
    728000   0.95726723     0.0058334881   0.94095357    -0.0091934872 
    729000   1.0519239      0.0058198208   1.0409541     -0.0031455707 
    730000   1.0045388      0.0066051626   0.9961002     -0.00096682989
    731000   1.0199257      0.0050444938   1.0092385     -0.0031010166 
    732000   1.0132686      0.0062490546   1.0025168     -0.0032151076 
    733000   0.99724134     0.0061318319   0.98338995    -0.0064338926 
    734000   1.0103953      0.0060133947   0.99854576    -0.0043341541 
    735000   1.0194673      0.0063922577   1.0097559     -0.0021286386 
    736000   0.94207071     0.0048220691   0.93014202    -0.0049215519 
    737000   0.98365904     0.0059826614   0.96856965    -0.0077729135 
    738000   1.0195681      0.0070564863   1.0045704     -0.0074141631 
    739000   0.99621537     0.0065126397   0.9799738     -0.0088317036 
    740000   0.9405049      0.0055967056   0.93071283    -0.0027965816 
    741000   1.0098026      0.0071383772   0.99874955    -0.0035421474 
    742000   0.94635545     0.0062958617   0.93907896    -0.00023748244
    743000   1.0285456      0.0063202384   1.0146307     -0.0062645799 
    744000   0.97087253     0.0054565998   0.96213567    -0.0015154893 
    745000   1.0100326      0.0055836157   1.0000036     -0.0025164001 
    746000   0.99097407     0.0064951656   0.9807024     -0.0029007886 
    747000   0.96261902     0.0060799044   0.946412      -0.0090470431 
    748000   0.95032872     0.0072656994   0.93564705    -0.0076131092 
    749000   1.0585983      0.0067156935   1.0472995     -0.0034248547 
    750000   0.99410319     0.0063672618   0.98411346    -0.0025955754 
    751000   1.0334338      0.0063153282   1.0174798     -0.0082673116 
    752000   1.0499199      0.0075028465   1.0439674      0.0018568305 
    753000   1.0685864      0.0074756978   1.0579024     -0.0027358903 
    754000   1.0342995      0.0061503969   1.0265607     -4.5659057e-05
    755000   0.99518412     0.00610732     0.98447614    -0.0033057851 
    756000   0.94723117     0.0057418415   0.93692688    -0.0032587668 
    757000   1.0186893      0.005984202    1.0054078     -0.005704484  
    758000   0.95376688     0.0054770453   0.94347998    -0.003192769  
    759000   0.95165129     0.0062359062   0.94645291     0.0018800198 
    760000   0.99675329     0.0051534159   0.98770057    -0.0016388503 
    761000   1.0581435      0.0069558064   1.0482834     -0.0019895931 
    762000   1.0201035      0.0065744349   1.0125159      0            
    763000   1.074796       0.0069655574   1.0665876     -0.00021406811
    764000   1.035693       0.005828182    1.022778      -0.0052114883 
    765000   1.0190168      0.0067064192   1.0057986     -0.0056387068 
    766000   0.93604107     0.0053154127   0.92907878     0            
    767000   1.0218605      0.005774486    1.01512        0.00086009742
    768000   1.057806       0.0063410415   1.0457066     -0.0042314314 
    769000   1.0001091      0.0056095238   0.98252326    -0.010147021  
    770000   1.0074562      0.0065705907   0.99592015    -0.0040425704 
    771000   0.95548919     0.0062215475   0.93647286    -0.011909382  
    772000   1.029508       0.0058267211   1.0105263     -0.011324148  
    773000   0.97815748     0.0053578376   0.95569629    -0.015185641  
    774000   0.87077731     0.0061352894   0.85786505    -0.0064353988 
    775000   0.99069358     0.0063235463   0.97800751    -0.0053172749 
    776000   1.0352483      0.0059382097   1.022036      -0.0055121147 
    777000   0.98346611     0.006180901    0.96724221    -0.008908863  
    778000   0.95857911     0.0057755156   0.93945407    -0.011995114  
    779000   0.98757617     0.0061666883   0.97360196    -0.006628606  
    780000   1.0992122      0.0065648683   1.0878744     -0.0031619059 
    781000   1.0423755      0.0066330847   1.0313579     -0.0032644706 
    782000   1.012579       0.0065490908   1.0051578      0.0001103504 
    783000   1.0574976      0.0074976294   1.0430204     -0.0066115702 
    784000   1.0112429      0.005162339    1.003574      -0.00014721366
    785000   0.98109956     0.0063857567   0.96788332    -0.0059188007 
    786000   0.99669219     0.0062871886   0.98875783    -0.00052094369
    787000   1.061718       0.0064247498   1.0566484      0.0028275417 
    788000   1.0024903      0.0063081676   0.9903832     -0.0046505531 
    789000   0.95344394     0.0058007185   0.94320508    -0.0031471212 
    790000   0.94802935     0.0059175794   0.93869808    -0.0022798136 
    791000   1.0247781      0.0058310561   1.0138509     -0.0033049095 
    792000   1.0599966      0.0067738892   1.049208      -0.0029043309 
    793000   0.95866742     0.0056422217   0.95190746     0.00037061671
    794000   0.97886559     0.0061994006   0.97158477     0            
    795000   1.0070555      0.0053893952   0.99829844    -0.0012666125 
    796000   0.92767136     0.0056877862   0.91593193    -0.0048393901 
    797000   1.0016239      0.0063507932   0.98984812    -0.0043256752 
    798000   0.99865444     0.0061012657   0.98637757    -0.0048488631 
    799000   1.0217425      0.0062462075   1.0056098     -0.0085329663 
    800000   1.0338002      0.0058940143   1.017562      -0.008548823  
    801000   1.040537       0.0064068728   1.0266944     -0.0061031094 
    802000   1.060549       0.0066152094   1.0470185     -0.0056421338 
    803000   1.0701659      0.0055542505   1.0549924     -0.0072135702 
    804000   0.99126076     0.0068216301   0.97572307    -0.0081646785 
    805000   1.0123158      0.0054395246   0.99683883    -0.0079473347 
    806000   0.98024567     0.0062282547   0.96776022    -0.0051943715 
    807000   1.0203703      0.0046637996   1.0127807      0            
    808000   0.90294091     0.0058964665   0.8908516     -0.0053732192 
    809000   1.0075317      0.0061495282   0.99297724    -0.007060398  
    810000   1.0117735      0.0058524664   0.99553004    -0.0087178495 
    811000   0.9888501      0.0067166949   0.97331225    -0.0081827659 
    812000   1.0388781      0.0063017328   1.0264953     -0.0046556253 
    813000   0.99232101     0.0056115939   0.97522914    -0.0097109711 
    814000   1.0195873      0.0058228991   1.0091644     -0.0028392176 
    815000   1.0050409      0.0052466521   0.99301205    -0.0045533149 
    816000   0.98447724     0.0061399317   0.97035013    -0.0068045516 
    817000   0.96570833     0.0054929699   0.9562209     -0.0023044692 
    818000   0.99203686     0.0058744366   0.97841588    -0.0062422004 
    819000   1.0402654      0.0069491888   1.019445      -0.013082885  
    820000   0.9533856      0.0053865671   0.93591793    -0.010376367  
    821000   0.9842288      0.0058659621   0.97361638    -0.0032917155 
    822000   1.0068807      0.0059433035   0.99231087    -0.0070806227 
    823000   1.0279997      0.0061050005   1.0196587     -0.00069475616
    824000   1.0493455      0.006655777    1.0381124     -0.0034280614 
    825000   1.0068439      0.0065196817   0.98845338    -0.010901558  
    826000   0.98214456     0.0064901073   0.96902127    -0.0058180833 
    827000   0.96988287     0.0058615826   0.95884393    -0.0038249367 
    828000   0.96709822     0.00576696     0.95084009    -0.009064838  
    829000   0.96758511     0.0059770033   0.94903776    -0.011350439  
    830000   0.98895314     0.0064577902   0.97547195    -0.0061253444 
    831000   0.97777846     0.0064042808   0.97060008     9.4349818e-05
    832000   0.96257021     0.0063104791   0.9554106      0            
    833000   1.0086489      0.0056671967   1.0011466      0            
    834000   1.0243479      0.006767971    1.0167287      0            
    835000   0.94016056     0.004464072    0.93316763     0            
    836000   1.0047056      0.0066159619   0.99723256     0            
    837000   1.0399282      0.0066198659   1.0321932      0            
    838000   1.0580346      0.0064389646   1.0496951     -0.00046983388
    839000   0.98951767     0.0058857572   0.98209893    -5.8689253e-05
    840000   1.0233676      0.0065681021   1.0124813     -0.0032744606 
    841000   1.0007452      0.0062087654   0.99240264    -0.00089898524
    842000   0.98800103     0.0052404326   0.98065226     0            
    843000   0.97108028     0.0059371762   0.96332893    -0.00052843966
    844000   1.0188879      0.0064644252   1.0061328     -0.0051765518 
    845000   1.0619379      0.0069280102   1.0510128     -0.003026337  
    846000   1.0446252      0.0058123878   1.0363665     -0.00048869802
    847000   1.0045469      0.0070435925   0.99561447    -0.0014606376 
    848000   1.0113475      0.0075128116   1.0005193     -0.0033057851 
    849000   0.94827846     0.0052886822   0.94122515     0            
    850000   1.0683518      0.0067795849   1.0602342     -0.00017122302
    851000   1.0054926      0.0060210376   0.99801377     0            
    852000   0.95458252     0.005859319    0.94636435    -0.001117972  
    853000   0.98268623     0.0062282101   0.97250648    -0.002870513  
    854000   0.99824881     0.0057266025   0.99165719     0.00083337045
    855000   0.96957741     0.0069480693   0.96236568     0            
    856000   1.0496991      0.0059420559   1.0394291     -0.002462289  
    857000   0.90876469     0.0064445932   0.89885546    -0.0031498186 
    858000   1.0145294      0.0064757725   1.0038108     -0.0031725445 
    859000   0.99543135     0.0065052582   0.98641357    -0.0016137412 
    860000   1.0153437      0.0069137824   1.0030929     -0.0046986366 
    861000   1.0218198      0.0058321553   1.0046031     -0.0096164014 
    862000   1.0249884      0.00664565     1.0153214     -0.0020430896 
    863000   1.0120932      0.0064300242   1.0034217     -0.0011435966 
    864000   1.0230374      0.0074125743   1.0134956     -0.0019324382 
    865000   1.0273226      0.0064132567   1.0196814      0            
    866000   1.0241595      0.0061407756   1.0167762      0.00023439796
    867000   0.97439641     0.0058379972   0.96714884     0            
    868000   1.0189401      0.0064846253   1.0113612      0            
    869000   0.98765545     0.0063762647   0.97735795    -0.0029513034 
    870000   0.98241717     0.0061484122   0.97087095    -0.00423899   
    871000   0.90944632     0.0064786269   0.90044047    -0.0022413777 
    872000   1.0092375      0.0055112974   0.9984181     -0.0033126842 
    873000   1.0169304      0.0066212703   1.0073574     -0.0020090383 
    874000   0.99117644     0.0059083877   0.98303372    -0.00077033751
    875000   0.98211789     0.0061613108   0.96907501    -0.0057378652 
    876000   0.99992516     0.0063726163   0.99118583    -0.0013018655 
    877000   1.0457621      0.0071135626   1.0379837      0            
    878000   0.93948265     0.0057769081   0.93249477     0            
    879000   0.98745505     0.0061628802   0.97032857    -0.0097817739 
    880000   1.0044193      0.006166987    0.98924922    -0.0076991592 
    881000   0.96923542     0.0065640195   0.95877198    -0.0032542516 
    882000   1.0244104      0.0060352231   1.010369      -0.0064218276 
    883000   0.94571112     0.0056534617   0.93101       -0.0076669089 
    884000   0.95456885     0.0062350508   0.94369574    -0.0037730112 
    885000   1.0841652      0.006275329    1.0662875     -0.0098136645 
    886000   0.97794366     0.0064139648   0.9633509     -0.007318792  
    887000   1.0091271      0.006046802    0.99833557    -0.0032856643 
    888000   1.0430573      0.0064004453   1.0350435     -0.00025544422
    889000   1.0251305      0.0068616502   1.0163136     -0.0011918939 
    890000   0.98175297     0.0051601899   0.97445067     0            
    891000   0.99920853     0.0068737779   0.98850652    -0.0032698815 
    892000   0.95326724     0.0054943962   0.9445986     -0.0015782294 
    893000   1.0546537      0.0054256663   1.0435056     -0.0033036377 
    894000   1.0391325      0.0052028104   1.0314034      0            
    895000   1.0357802      0.0065921546   1.0267982     -0.001277851  
    896000   0.98426993     0.0060369752   0.97512614    -0.0018227732 
    897000   0.95089699     0.0059632639   0.93792455    -0.0058996554 
    898000   1.0405589      0.0062985828   1.0295134     -0.0033057851 
    899000   1.0235679      0.0061374959   1.0149166     -0.0010380126 
    900000   1.0215503      0.0059176961   1.0081552     -0.0057968047 
    901000   0.98922672     0.0057218628   0.97393464    -0.0079341933 
    902000   1.0478404      0.0066750368   1.0330733     -0.0069732055 
    903000   0.9903878      0.0053794355   0.97843752    -0.0045837548 
    904000   1.0156723      0.0053721766   1.0014307     -0.0066870394 
    905000   1.009753       0.0065657439   0.99641779    -0.0058246688 
    906000   1.0236929      0.0064471934   1.0130684     -0.0030102577 
    907000   0.99363136     0.0066158951   0.98213203    -0.0041086858 
    908000   0.93248322     0.0059586459   0.92398937    -0.0015580276 
    909000   1.030457       0.0076940039   1.0193645     -0.0034278896 
    910000   1.0067125      0.0070654104   0.99823096    -0.00099356353
    911000   0.98451831     0.0062666517   0.96915663    -0.008038824  
    912000   1.0800986      0.0064740016   1.0630761     -0.0089887062 
    913000   0.9572366      0.0065962682   0.94443732    -0.0056793435 
    914000   1.0380697      0.0057805665   1.028387      -0.0019615281 
    915000   0.98984488     0.006588221    0.97939394    -0.0030884583 
    916000   1.0394243      0.0069667863   1.0265046     -0.0051884477 
    917000   0.99072321     0.0066191115   0.98172609    -0.0016281011 
    918000   0.95142955     0.0056692543   0.93895526    -0.0053975452 
    919000   0.99762624     0.0066060943   0.99034996     0.00014407638
    920000   0.95513975     0.0059168603   0.94820296     0.00016755386
    921000   1.0519134      0.0058879116   1.0412206     -0.0028686206 
    922000   0.97130465     0.0068232554   0.96305076    -0.0010293079 
    923000   1.0228668      0.0063463312   1.0155313      0.00027258958
    924000   0.99480035     0.0057361558   0.98147588    -0.0059251224 
    925000   1.1523932      0.0073236047   1.139111      -0.0047106754 
    926000   1.0064873      0.0061417971   0.99298874    -0.0060122676 
    927000   1.023262       0.0065440244   1.0136485     -0.0020024389 
    928000   0.98986729     0.0066516838   0.97762933    -0.0048753045 
    929000   0.95168698     0.0062948093   0.93682673    -0.00778159   
    930000   1.0233297      0.0072466172   1.0094719     -0.0062463111 
    931000   0.89646234     0.0056028665   0.88410587    -0.0056885732 
    932000   0.99944678     0.0055977693   0.98455735    -0.0074555235 
    933000   0.99801666     0.0053168904   0.98537822    -0.0052151811 
    934000   0.9837284      0.0073570244   0.97636973    -4.1688573e-05
    935000   0.92256688     0.0072418353   0.91997007     0.0042652593 
    936000   0.98723582     0.0063734217   0.97821079    -0.0016819484 
    937000   0.99944393     0.0064309669   0.9912268     -0.00078325114
    938000   0.99750604     0.0064482404   0.99008399    -2.5854601e-06
    939000   0.89801461     0.0060746965   0.88802938    -0.0033057851 
    940000   0.98945546     0.0055430781   0.98209587     0            
    941000   0.9818043      0.0068176164   0.97450162     0            
    942000   1.030951       0.0062493693   1.0235055      0.00022276035
    943000   0.91055592     0.0056136117   0.90378319     0            
    944000   0.98229049     0.0066116803   0.97498419     0            
    945000   1.0369704      0.0063775111   1.0256739     -0.0035835518 
    946000   1.0024723      0.0057319002   0.98626361    -0.0087522837 
    947000   0.97675196     0.0068506582   0.96362472    -0.0058621485 
    948000   1.060191       0.0068893556   1.0480249     -0.0042804155 
    949000   0.96056451     0.0065349153   0.9525217     -0.00089811433
    950000   1.0432692      0.0064180634   1.030193      -0.0053163679 
    951000   0.96447979     0.0055642518   0.95126383    -0.0060421375 
    952000   1.0314926      0.0059681762   1.0218116     -0.0020088271 
    953000   1.0095795      0.0061942535   0.99946478    -0.0026054158 
    954000   1.0961146      0.0070721427   1.0831511     -0.004810589  
    955000   1.0458308      0.0054698697   1.0380519      0            
    956000   1.0279983      0.0053926004   1.0191646     -0.0011874289 
    957000   1.0048535      0.0066076623   0.99413937    -0.0032400399 
    958000   0.96688864     0.0054110053   0.9550597     -0.0046372117 
    959000   1.0510073      0.006790917    1.0411926     -0.0019973015 
    960000   1.0094937      0.0069477898   0.99569112    -0.0062938967 
    961000   0.9842558      0.0054525612   0.97273808    -0.0041968091 
    962000   0.98257434     0.0051117997   0.96498332    -0.010282616  
    963000   0.96623524     0.0055909835   0.95225913    -0.0067892378 
    964000   0.97425509     0.0055081982   0.95920661    -0.0078019483 
    965000   1.0930606      0.0059795765   1.0841559     -0.00077441406
    966000   1.0502226      0.0060090712   1.0389        -0.0035110536 
    967000   1.0153121      0.0068807506   1.0054839     -0.0022762849 
    968000   0.96826947     0.0057608177   0.96106746     0            
    969000   0.99550077     0.0052461921   0.98549685    -0.0025993601 
    970000   1.0650869      0.0055743421   1.055849      -0.0013158311 
    971000   1.0235835      0.0059050305   1.0139244     -0.0020457045 
    972000   1.0657896      0.0066048742   1.0578622      0            
    973000   1.0603355      0.0055388537   1.0515873     -0.0008613967 
    974000   0.97776225     0.0053365605   0.97303178     0.0025421362 
    975000   0.99194328     0.0054451825   0.98153413    -0.003031054  
    976000   0.9727056      0.0066414414   0.96256236    -0.0029082396 
    977000   0.9842132      0.0062469152   0.97209401    -0.0047985959 
    978000   0.9548717      0.0055701249   0.94090094    -0.006868413  
    979000   0.98440102     0.0063447017   0.97260187    -0.0044771593 
    980000   0.97526003     0.0057163052   0.95694744    -0.011058595  
    981000   1.0295396      0.0057856556   1.0173679     -0.0045139793 
    982000   0.96879727     0.0060240199   0.9613286     -0.00026274423
    983000   1.0127874      0.0069972817   1.0012874     -0.0039669381 
    984000   0.93918835     0.006487808    0.92409615    -0.0081065077 
    985000   1.0222991      0.0062108465   1.0114473     -0.0032478488 
    986000   1.0676139      0.0059304757   1.0547416     -0.004931304  
    987000   0.98827143     0.0044791234   0.97802946    -0.0028911914 
    988000   1.0068355      0.0065982113   0.99275774    -0.0065889379 
    989000   1.0828571      0.0067314573   1.0748028      0            
    990000   1.0020963      0.0059586644   0.99007033    -0.0045723793 
    991000   0.97559081     0.0057692628   0.9547231     -0.01361125   
    992000   0.97247699     0.0057151448   0.9481365     -0.01710719   
    993000   0.9508912      0.0059842122   0.93808738    -0.0057310734 
    994000   0.9544298      0.0058269918   0.93816595    -0.009164787  
    995000   0.96562789     0.0053044748   0.95240894    -0.0060365967 
    996000   0.99086144     0.0061120761   0.98311857    -0.00037282796
    997000   1.0138093      0.0060913423   1.0065748      0.00030621555
    998000   1.0364259      0.0064892717   1.0287234      6.528811e-06 
    999000   0.98234581     0.0057949512   0.9750391      0            
   1000000   0.99054558     0.0058690436   0.98269391    -0.00048397371
Loop time of 28.1389 on 1 procs for 1000000 steps with 605 atoms

Performance: 30704829.540 tau/day, 35537.997 timesteps/s
98.4% CPU use with 1 MPI tasks x no OpenMP threads

MPI task timing breakdown:
Section |  min time  |  avg time  |  max time  |%varavg| %total
---------------------------------------------------------------
Pair    | 1.2845     | 1.2845     | 1.2845     |   0.0 |  4.56
Bond    | 0.044578   | 0.044578   | 0.044578   |   0.0 |  0.16
Neigh   | 6.9514     | 6.9514     | 6.9514     |   0.0 | 24.70
Comm    | 1.3277     | 1.3277     | 1.3277     |   0.0 |  4.72
Output  | 0.51714    | 0.51714    | 0.51714    |   0.0 |  1.84
Modify  | 15.981     | 15.981     | 15.981     |   0.0 | 56.79
Other   |            | 2.032      |            |       |  7.22

Nlocal:            605 ave         605 max         605 min
Histogram: 1 0 0 0 0 0 0 0 0 0
Nghost:             91 ave          91 max          91 min
Histogram: 1 0 0 0 0 0 0 0 0 0
Neighs:              7 ave           7 max           7 min
Histogram: 1 0 0 0 0 0 0 0 0 0

Total # of neighbors = 7
Ave neighs/atom = 0.011570248
Ave special neighs/atom = 0
Neighbor list builds = 218342
Dangerous builds = 0
Total wall time: 0:00:28
