fix fLANG all langevin 1.0 1.0 1.0 100
neigh_modify exclude molecule/intra all
fix rigidNVE linked_vesicle rigid/nve molecule
  1 rigid bodies with 5 atoms
fix NVE synapsin nve 1.0 1.0 1.0

    ##======================================##
    ## Output
    ##======================================##

thermo 1000
thermo_style custom step temp press etotal epair
thermo_modify flush yes
timestep 0.01

    ##======================================##
    ## Equilibration before output
    ##======================================##


    ##======================================##
    ## Run with output
    ##======================================##

fix enforce_2d all enforce2d
dump 2 all custom 1000 Results_eps_attr2_eps_rep1_range2_attr_with_repFalse_n_synapsin400_n_vesicles1/Movie_2d_eps_attr2_eps_rep1_range2_attr_with_repFalse_n_synapsin400_n_vesicles1.xyz id type mol x y z
run 1000000
Generated 0 of 3 mixed pair_coeff terms from geometric mixing rule
Neighbor list info ...
  update every 1 steps, delay 1 steps, check yes
  max neighbors/atom: 2000, page size: 100000
  master list distance cutoff = 11.52462
  ghost atom cutoff = 11.52462
  binsize = 5.7623102, bins = 55 55 1
  1 neighbor lists, perpetual/occasional/extra = 1 0 0
  (1) pair cosine/squared, perpetual
      attributes: half, newton on
      pair build: half/bin/newton
      stencil: half/bin/2d
      bin: standard
Per MPI rank memory allocation (min/avg/max) = 8.526 | 8.526 | 8.526 Mbytes
   Step          Temp          Press          TotEng         E_pair    
         0   0.99441908    -0.013071225    0.98336998     0            
      1000   1.052877       0.0040548885   1.0411809      2.5044906e-06
      2000   0.97902644     0.0030040622   0.96849889     0.00035052091
      3000   1.0601207      0.0035583022   1.0483416      0            
      4000   1.0466423      0.0043625821   1.0350129      0            
      5000   1.0005436      0.0035020426   0.98945454     2.8061539e-05
      6000   0.97028404     0.0030784247   0.95950311     0            
      7000   0.9429228      0.0035389451   0.9342467      0.001800821  
      8000   1.070792       0.0042930144   1.0588943      0            
      9000   1.099818       0.0040939823   1.0875978      0            
     10000   1.063934       0.004763956    1.0517005     -0.00041197253
     11000   0.96178199     0.0044395319   0.95109552     0            
     12000   0.92746665     0.0037215324   0.91716147     0            
     13000   0.95229592     0.0046780089   0.94171485     0            
     14000   1.0603926      0.0041151898   1.0486104      0            
     15000   0.9642671      0.0040267135   0.95355302     0            
     16000   0.96265889     0.0038102223   0.95199117     2.8488409e-05
     17000   1.0101258      0.0050097156   0.99890222     0            
     18000   1.0793985      0.0044006752   1.0635937     -0.003811433  
     19000   0.99639428     0.0039578755   0.9786686     -0.0066546339 
     20000   0.98261642     0.0052069656   0.96704708    -0.004651385  
     21000   0.95140999     0.0038541832   0.93672555    -0.0041132191 
     22000   0.88755271     0.003117061    0.87623508    -0.0014559302 
     23000   0.90457589     0.0039095616   0.89487184     0.00034679045
     24000   0.9520777      0.0040752207   0.94149906     0            
     25000   0.96201167     0.0041815588   0.95132265     0            
     26000   0.97183055     0.0038096714   0.96103244     0            
     27000   1.0002569      0.0033353771   0.98943057     0.00028763488
     28000   1.0270066      0.0044141842   1.0155954      0            
     29000   1.0341003      0.0035987267   1.0226103      0            
     30000   0.97116535     0.0043180793   0.96037462     0            
     31000   0.99379772     0.0043534071   0.97823633    -0.0045192    
     32000   1.0465194      0.0039671546   1.0301222     -0.0047691639 
     33000   1.0182106      0.0045177132   1.0068971      0            
     34000   0.95975812     0.0037430195   0.94909414     0            
     35000   1.0557546      0.0045036497   1.0444291      0.00040508472
     36000   0.99171819     0.0044290717   0.9806991      0            
     37000   1.0256479      0.0046687205   1.0142518      0            
     38000   0.99419475     0.0035556475   0.98314814     0            
     39000   0.91034728     0.0040336222   0.90023231     0            
     40000   1.0278357      0.0041876872   1.0164153      0            
     41000   0.94171463     0.0038577229   0.92957286    -0.0016782679 
     42000   1.0471052      0.0048858839   1.0354707      0            
     43000   0.99622798     0.0040753512   0.98515878     0            
     44000   1.0464707      0.003738282    1.0348433      0            
     45000   1.0186651      0.0027881289   1.0073466      0            
     46000   1.0315571      0.0045071635   1.0200953      0            
     47000   0.99030269     0.0034232436   0.97929932     0            
     48000   1.0601771      0.0047675221   1.0483973      0            
     49000   1.0083872      0.0036997194   0.99718289     0            
     50000   0.96670071     0.0037116364   0.95595959     0            
     51000   1.0143933      0.0039785157   1.0032069      8.4608e-05   
     52000   1.1112183      0.004775855    1.103118       0.0042466255 
     53000   1.0252129      0.0040717282   1.0138216      0            
     54000   1.0680678      0.0050895357   1.0562004      0            
     55000   0.98664204     0.0036635994   0.97567935     0            
     56000   1.052967       0.0051842044   1.0412673      0            
     57000   0.99870358     0.0038803219   0.98760687     0            
     58000   0.97641205     0.0046714672   0.96556303     0            
     59000   1.0055289      0.0041582333   0.99435632     0            
     60000   1.0173515      0.0041110549   1.0060476      0            
     61000   1.0509219      0.0036706259   1.03494       -0.0043049638 
     62000   0.97869697     0.0044746221   0.96742286    -0.00039970604
     63000   1.0630317      0.0046144143   1.0511065     -0.00011371022
     64000   0.98184656     0.0029447335   0.9703007     -0.00063644725
     65000   1.0553983      0.0051017096   1.0436716      0            
     66000   1.0326453      0.0037348141   1.0211715      0            
     67000   0.98584451     0.0044052341   0.97489069     0            
     68000   0.99864389     0.0025386172   0.98754785     0            
     69000   0.99716196     0.0034632095   0.98638154     0.00029915344
     70000   1.0328161      0.0048091121   1.024779       0.0034385954 
     71000   0.97668687     0.0043479823   0.95738004    -0.0084547508 
     72000   1.051781       0.0042888825   1.0353944     -0.0047001063 
     73000   0.95761053     0.0043854657   0.94697041     0            
     74000   0.92228761     0.0039667268   0.9077239     -0.0043160637 
     75000   1.0322479      0.0038568715   1.0207785      0            
     76000   1.0545774      0.0032114834   1.0428599      0            
     77000   1.0192844      0.0045057423   1.007959       0            
     78000   0.9918911      0.0041515449   0.98087009     0            
     79000   1.0092234      0.0041077848   0.99800983     0            
     80000   1.0802896      0.0042272317   1.0657259     -0.0025605518 
     81000   0.97009718     0.0035628719   0.95457154    -0.0047467853 
     82000   1.0189391      0.0042875308   1.0076175      0            
     83000   1.0066167      0.0043063133   0.99543211     0            
     84000   0.92851916     0.0051791261   0.91820228     0            
     85000   0.94278446     0.0042189968   0.93230907     0            
     86000   1.0112069      0.0041675964   0.99997125     0            
     87000   0.94292857     0.0046807223   0.93245159     0            
     88000   1.0136064      0.0038996466   1.0023441      0            
     89000   0.96884472     0.0049602424   0.95807978     0            
     90000   0.9830735      0.0039620157   0.97215046     0            
     91000   0.98955087     0.0045268316   0.97855586     0            
     92000   1.0025684      0.0047071356   0.99142872     0            
     93000   1.0546103      0.0037002583   1.0428924      0            
     94000   1.0170708      0.0036542451   1.0008646     -0.004905405  
     95000   0.99941629     0.003884685    0.98831166     0            
     96000   1.0553949      0.0042216837   1.0436682      0            
     97000   0.94133746     0.0049626989   0.92667814    -0.00420002   
     98000   0.97548864     0.0044426758   0.96464988     0            
     99000   0.98977638     0.0038157214   0.97877886     0            
    100000   0.96431814     0.0043316743   0.95385674     0.00025325197
    101000   1.0951884      0.0042856736   1.0830196      0            
    102000   0.97704257     0.0041582416   0.96477637    -0.0014101664 
    103000   1.0751269      0.0035153325   1.063181       0            
    104000   0.9661862      0.0040632702   0.9554508      0            
    105000   0.99878781     0.0056809636   0.98769017     0            
    106000   0.94582718     0.0041756533   0.93533657     1.8574453e-05
    107000   1.0075738      0.0050998196   0.9963785      0            
    108000   0.94009446     0.0044974979   0.92964897     0            
    109000   0.96592231     0.0027034129   0.95518984     0            
    110000   1.0526289      0.0044960224   1.0406697     -0.00026337471
    111000   1.0355479      0.004139455    1.0240418      0            
    112000   1.0151883      0.0035874796   1.0039085      0            
    113000   1.0301728      0.0053732248   1.0190175      0.00029103854
    114000   1.0266102      0.0031181834   1.0152034      0            
    115000   1.1246423      0.0053901177   1.1121599      1.3689369e-05
    116000   1.0501187      0.0041993806   1.0384507      0            
    117000   1.0131221      0.0040598292   1.0018651      0            
    118000   1.0698693      0.0039989986   1.0579819      0            
    119000   1.0475323      0.0037077925   1.035893       0            
    120000   1.0258066      0.0052062062   1.0156014      0.0011926192 
    121000   1.0794166      0.0049377899   1.0674231      0            
    122000   0.97532165     0.0041106762   0.96448474     0            
    123000   1.0404899      0.0045117131   1.0289289      0            
    124000   0.96665126     0.0047996357   0.95591069     0            
    125000   0.9944655      0.0041619772   0.98341617     2.8186987e-07
    126000   1.0164194      0.0036656417   1.0051259      0            
    127000   1.0112616      0.0040665122   1.0000254      0            
    128000   1.0686954      0.0048090177   1.056821       0            
    129000   0.9997438      0.0039118782   0.98863553     0            
    130000   0.99930695     0.0038917902   0.98820354     0            
    131000   1.0151388      0.0043010936   1.0038595      0            
    132000   0.93332854     0.0049468411   0.92295823     0            
    133000   0.99876906     0.0033463326   0.98772795     5.6321443e-05
    134000   1.0546763      0.0054163711   1.0429576      0            
    135000   1.0578355      0.0046177772   1.0460817      0            
    136000   0.91798765     0.0041871997   0.90769559    -9.2194451e-05
    137000   0.98438274     0.0045130591   0.96877256    -0.0046725978 
    138000   0.94967579     0.0043136776   0.93825454    -0.00086929546
    139000   0.95924596     0.00328077     0.94860796     2.028563e-05 
    140000   0.99053499     0.0049333222   0.97952904     0            
    141000   0.9909228      0.004066111    0.97535465    -0.004557888  
    142000   1.0438892      0.0041707375   1.0320812     -0.0002092697 
    143000   0.92285819     0.004074473    0.91260421     0            
    144000   1.0460729      0.0037213465   1.0352837      0.0008337656 
    145000   0.90855766     0.0045443526   0.88993969    -0.0085228861 
    146000   0.95340835     0.0041002098   0.93745314    -0.0053617784 
    147000   1.0342044      0.0048102921   1.0227133      0            
    148000   1.0007514      0.0037700729   0.98496148    -0.0046704868 
    149000   0.92639871     0.0029425545   0.91610539     0            
    150000   1.0037056      0.0041306035   0.99265376     0.000100481  
    151000   0.97414617     0.0034381214   0.96070899    -0.0026133324 
    152000   1.0519268      0.0038446015   1.0354181     -0.0048206614 
    153000   0.9921192      0.0043780398   0.98139984     0.00030419071
    154000   1.0341481      0.0042011183   1.0226576      0            
    155000   1.0986407      0.0046068604   1.0841        -0.0023335996 
    156000   1.0775916      0.0049409826   1.0683698      0.0027513846 
    157000   0.94524136     0.0043342647   0.93250059    -0.0022380834 
    158000   1.0388669      0.002722053    1.0222441     -0.0050798636 
    159000   0.98132714     0.0042369046   0.9704235      0            
    160000   1.0039427      0.0044880526   0.99194189    -0.00084585772
    161000   0.96071339     0.0043582247   0.9500264     -1.2395786e-05
    162000   1.0534136      0.0049052536   1.0368913     -0.0048177172 
    163000   1.0384036      0.0044877697   1.0232373     -0.0036284656 
    164000   1.0382152      0.0044565857   1.0248405     -0.0018389761 
    165000   1.0538403      0.00518013     1.0421309      0            
    166000   0.93254487     0.004210887    0.92218327     0            
    167000   1.0149263      0.0044783918   1.0036494      0            
    168000   1.0802095      0.004400584    1.0682072      0            
    169000   1.0388468      0.0048325567   1.027304       0            
    170000   1.001535       0.00378055     0.98967707    -0.00072972073
    171000   1.0101598      0.0041350607   0.99893576     0            
    172000   1.0724848      0.0046318548   1.0605683      0            
    173000   1.0147008      0.0043134734   1.0034264      0            
    174000   1.0846656      0.0041649097   1.0686642     -0.0039495367 
    175000   0.98005169     0.0035740003   0.96916455     2.3264678e-06
    176000   0.94500268     0.003367555    0.93450265     0            
    177000   0.97712123     0.0040690755   0.96626432     0            
    178000   0.97075808     0.0033709318   0.95997188     0            
    179000   1.0105593      0.0043282952   0.99933084     0            
    180000   0.97034876     0.0033586602   0.95499733    -0.0045697781 
    181000   0.99839136     0.0050794527   0.97911655    -0.0081815734 
    182000   0.9921486      0.0037979989   0.97710847    -0.0040162548 
    183000   1.0465813      0.0037721876   1.0278807     -0.0070719087 
    184000   1.0640633      0.0044162657   1.0477376     -0.004502772  
    185000   1.0313667      0.0040784003   1.015066      -0.0048410965 
    186000   0.98736506     0.0043843166   0.97639434     0            
    187000   0.97094927     0.0041968166   0.95460292    -0.0055580264 
    188000   1.0500188      0.003627309    1.0349423     -0.0034095547 
    189000   0.91324171     0.0031782332   0.89866433    -0.0044302517 
    190000   1.0670825      0.0037173492   1.0490526     -0.0061734246 
    191000   1.052871       0.0053563511   1.0365363     -0.0046361847 
    192000   1.0427999      0.0043154837   1.0268459     -0.0043673024 
    193000   1.011475       0.00401579     0.99585304    -0.0043833151 
    194000   0.98781741     0.0047153056   0.97684166     0            
    195000   1.0645191      0.0047821546   1.0526911      0            
    196000   1.0430825      0.0043370734   1.0314927      0            
    197000   0.98365708     0.0031773654   0.97272756     0            
    198000   0.93237711     0.0034228001   0.92201737     0            
    199000   0.95772076     0.0041352589   0.94707942     0            
    200000   0.98708099     0.0047278204   0.97611342     0            
    201000   1.0217836      0.0032750487   1.0106485      0.00021807301
    202000   1.0180656      0.0046080419   1.0029333     -0.0038205054 
    203000   0.95313063     0.0034463638   0.94254029     0            
    204000   0.96911264     0.0042595015   0.95834472     0            
    205000   0.95221841     0.0046021734   0.94191291     0.00027471052
    206000   0.96743623     0.0038933481   0.95416864    -0.0025183073 
    207000   1.0509372      0.0038338291   1.0380872     -0.0011729578 
    208000   0.97152394     0.0038836128   0.95841727    -0.0023119547 
    209000   1.0060269      0.0043565306   0.99422587    -0.00062295614
    210000   1.019112       0.003723673    1.0032036     -0.0045849749 
    211000   1.0527335      0.0043519591   1.0410364      0            
    212000   0.98960602     0.0048177996   0.97444312    -0.0041672816 
    213000   0.95769449     0.0033345249   0.94705344     0            
    214000   1.0385071      0.0037578166   1.0269478     -2.0320701e-05
    215000   1.0050378      0.0037300596   0.99387069     0            
    216000   0.99494751     0.0047750734   0.98389253     0            
    217000   0.94792094     0.0036078682   0.93610394    -0.0012845495 
    218000   1.021432       0.0046372494   1.0064723     -0.0036104668 
    219000   0.98432093     0.0045560814   0.97330234    -8.1699603e-05
    220000   1.0624505      0.0037689057   1.0506455      0            
    221000   1.1079944      0.0034372792   1.0957831      9.9752972e-05
    222000   1.0082445      0.0047494297   0.99704176     0            
    223000   0.96134187     0.00354271     0.9506603      0            
    224000   0.98904366     0.0038199573   0.97625847    -0.0017958171 
    225000   1.0179432      0.0042060043   1.0066327      0            
    226000   0.96416119     0.0042772226   0.95414813     0.00069984723
    227000   1.0500253      0.0049408301   1.0383584      0            
    228000   1.0404268      0.0042491075   1.0288665      0            
    229000   1.0832811      0.0044262655   1.0712446      0            
    230000   0.98707288     0.0035073253   0.9761054      0            
    231000   1.0348045      0.0046877657   1.0233067      0            
    232000   1.0669392      0.004424698    1.0550844      0            
    233000   1.0129352      0.0037176158   1.001842       0.00016158965
    234000   0.9307622      0.0045234891   0.9203504     -6.9999928e-05
    235000   1.0088064      0.0046407393   0.99366993    -0.0039274728 
    236000   1.0808379      0.0037553834   1.0674444     -0.0013841197 
    237000   1.0531333      0.0052273402   1.0414935      6.1710953e-05
    238000   0.98619798     0.0033417864   0.97157068    -0.003669539  
    239000   0.91659672     0.0030537163   0.90286051    -0.0035517974 
    240000   0.9912284      0.0043986145   0.97727375    -0.0029410047 
    241000   0.9237718      0.0044947464   0.91350767     0            
    242000   0.97020954     0.0049245219   0.95942944     0            
    243000   0.94229547     0.0033910367   0.92669898    -0.0051265444 
    244000   0.9399297      0.0032865576   0.92948603     0            
    245000   0.94977883     0.0034311921   0.93525024    -0.0039754842 
    246000   1.0029699      0.0037587399   0.99059315    -0.0012326899 
    247000   1.1011772      0.0045246511   1.0889419      0            
    248000   0.9781893      0.0036320975   0.96732053     0            
    249000   1.0720155      0.0043586017   1.0601042      0            
    250000   0.96660283     0.0034237622   0.95600615     0.00014335055
    251000   0.94459349     0.0025793884   0.93409801     0            
    252000   0.94477467     0.0041911434   0.93427718     0            
    253000   0.98994522     0.0038684563   0.97894583     0            
    254000   1.0094108      0.0040475743   0.99856861     0.00037347795
    255000   0.94565041     0.0033865191   0.93514319     0            
    256000   0.95412044     0.0038355089   0.94383245     0.00031335178
    257000   1.0041602      0.0046205143   0.9930029      0            
    258000   1.016919       0.003769116    1.0056199      0            
    259000   1.0247802      0.0041861918   1.0133937      0            
    260000   0.92149872     0.0045281459   0.91125985     0            
    261000   1.0146232      0.003889188    1.0033496      0            
    262000   0.95946129     0.0039147874   0.94880061     0            
    263000   0.94226342     0.0034958151   0.93179382     0            
    264000   1.0038173      0.0047631156   0.99266376     0            
    265000   1.0508922      0.0050135738   1.0394834      0.00026780484
    266000   0.98002324     0.0038813487   0.96913409     0            
    267000   0.9402398      0.0047891195   0.92979269     0            
    268000   0.98883684     0.0042345372   0.97784977     0            
    269000   0.97928329     0.0047255628   0.96840236     0            
    270000   1.0491744      0.0048873553   1.0368828     -0.00063411147
    271000   1.019584       0.0037270956   1.0082553      0            
    272000   0.94081497     0.0031743665   0.93036147     0            
    273000   1.0402726      0.003942811    1.028714       0            
    274000   0.99629145     0.0047874662   0.98522155     0            
    275000   0.96767835     0.0037644226   0.95559524    -0.001331127  
    276000   1.0139789      0.0039752273   1.0027124      0            
    277000   0.87859248     0.0044259525   0.86883034     0            
    278000   1.0487029      0.0055039323   1.0382781      0.0012275105 
    279000   0.965027       0.003950994    0.95430447     0            
    280000   0.9889872      0.0033857127   0.97799846     0            
    281000   1.074203       0.0034490423   1.0622674      0            
    282000   1.0324975      0.0039065589   1.0210253      0            
    283000   0.90338383     0.0035085411   0.89334623     0            
    284000   1.0211761      0.0035058469   1.0098297      0            
    285000   1.0229443      0.0046370467   1.0115782      0            
    286000   1.0130162      0.0042976051   1.0017605      0            
    287000   1.0037025      0.0038658688   0.99255024     0            
    288000   0.94687214     0.0030025854   0.93635134     0            
    289000   0.95685005     0.0026641608   0.94660747     0.00038908313
    290000   1.0036919      0.0046482851   0.98792686    -0.0046129413 
    291000   0.95394322     0.0047640027   0.93912247    -0.0042213827 
    292000   0.99731971     0.0041929088   0.98511185    -0.0011265337 
    293000   0.99836051     0.0037176888   0.98525175    -0.0020158617 
    294000   0.95348844     0.0042190332   0.93805197    -0.0048421517 
    295000   1.0105932      0.0041638728   1.0000013      0.00063692031
    296000   0.9153318      0.0031605421   0.89833457    -0.0068268834 
    297000   1.0378481      0.0042631394   1.0263164      0            
    298000   1.0566677      0.0049405379   1.0451638      0.00023684269
    299000   0.95255055     0.0034174028   0.94449386     0.0025272074 
    300000   1.0060933      0.0040243736   0.994674      -0.00024044194
    301000   1.0186095      0.0040373617   1.0072916      0            
    302000   0.96889917     0.0051093813   0.95813362     0            
    303000   0.9999805      0.0040172385   0.98886961     0            
    304000   0.98297447     0.0047386567   0.97205254     0            
    305000   1.0001273      0.0040727572   0.98901481     0            
    306000   1.0069671      0.0041926051   0.99577859     0            
    307000   1.0391504      0.0042006748   1.0276043      0            
    308000   0.9933451      0.0045439013   0.98230793     0            
    309000   0.91786909     0.0043803514   0.90767054     0            
    310000   0.99328893     0.0031018254   0.97766136    -0.0045910275 
    311000   0.9970575      0.0031646385   0.98597908     0            
    312000   1.0376803      0.0041095426   1.0261506      0            
    313000   1.001661       0.0042765214   0.99053145     0            
    314000   0.93454654     0.0042341988   0.92416269     0            
    315000   1.0701336      0.0049508807   1.0582432      0            
    316000   0.97162832     0.0032500384   0.96083245     0            
    317000   0.93093074     0.0029830994   0.92093358     0.00034650934
    318000   1.0428839      0.0038024953   1.0312963      0            
    319000   1.063764       0.0028661076   1.0519444      0            
    320000   0.97327476     0.0048754599   0.9624606      0            
    321000   0.8975487      0.0034750913   0.88757594     0            
    322000   1.0171896      0.0043660922   1.0021157     -0.0037718517 
    323000   1.0741201      0.0039784175   1.0581877     -0.0039978    
    324000   0.93673669     0.0035542328   0.92381214    -0.0025163718 
    325000   0.9891283      0.0043863828   0.97650524    -0.0016327383 
    326000   1.090086       0.0046709297   1.077974       0            
    327000   1.0386386      0.0043218258   1.0270982      0            
    328000   1.0146793      0.0047166806   1.0034051      0            
    329000   0.98428144     0.0043002965   0.97334498     0            
    330000   1.0617208      0.0027106415   1.0499239      0            
    331000   1.0108521      0.0042828612   0.99962045     0            
    332000   1.0550244      0.0032314996   1.0433019      0            
    333000   1.010231       0.004790155    0.99900624     0            
    334000   1.0289545      0.0039135392   1.0175217      0            
    335000   0.94834643     0.0042608034   0.93780924     0            
    336000   1.0343256      0.0037025303   1.0228331      0            
    337000   1.0603163      0.0043932976   1.048535       0            
    338000   1.0645918      0.0046647272   1.052763       0            
    339000   1.046599       0.004781879    1.0349702      0            
    340000   1.0318578      0.0035266391   1.0203927      0            
    341000   0.99151643     0.0036789921   0.98049958     0            
    342000   0.95224473     0.0038445801   0.94166423     0            
    343000   1.0588403      0.0047418963   1.0470754      0            
    344000   1.1129199      0.0045065329   1.1005541      0            
    345000   0.93654172     0.0032882729   0.92751327     0.0013775758 
    346000   1.006129       0.0046041374   0.99488825    -6.1501081e-05
    347000   1.0966218      0.0047429839   1.079094      -0.005343126  
    348000   1.0148067      0.0048695469   1.0049419      0.0014107966 
    349000   1.029466       0.0043196896   1.0132388     -0.0047887077 
    350000   0.91555584     0.0039596201   0.89917442    -0.0062085814 
    351000   0.95983871     0.0034855778   0.94743739    -0.0017364486 
    352000   1.0980296      0.0038922668   1.0836353     -0.0021939526 
    353000   1.0083967      0.0038836548   0.99725801     6.5737066e-05
    354000   0.94439129     0.0043859255   0.93389805     0            
    355000   0.98875171     0.0045519814   0.97914955     0.0013839709 
    356000   1.0111267      0.0046563646   0.99989193     0            
    357000   0.99750421     0.0047665657   0.98194968    -0.0044711482 
    358000   0.95911358     0.0034782136   0.94845676     0            
    359000   0.99866798     0.0034251327   0.98488709    -0.002684583  
    360000   0.97398211     0.0034125889   0.96316008     0            
    361000   1.0606617      0.0046695063   1.0488766      0            
    362000   1.057731       0.0045544935   1.0461129      0.0001344895 
    363000   1.0176701      0.0044534617   1.006376       1.3275818e-05
    364000   0.957288       0.0044446955   0.94665147     0            
    365000   0.9824375      0.0035996001   0.97152152     0            
    366000   1.0188162      0.0041026022   1.007496       0            
    367000   1.0181975      0.0037755721   1.0068841      0            
    368000   0.92877512     0.0034854107   0.91845539     0            
    369000   0.88832875     0.0037123767   0.87504222    -0.0034162156 
    370000   0.97269208     0.003486141    0.95884635    -0.0030380385 
    371000   1.0338566      0.0037504806   1.0223693      0            
    372000   1.041934       0.0043469624   1.030357       0            
    373000   0.97232363     0.0033902223   0.96588081     0.0043607773 
    374000   0.98272451     0.0036424547   0.96648455    -0.0053207987 
    375000   1.0391704      0.0038339082   1.0231975     -0.0044265749 
    376000   0.97983271     0.0039324145   0.96894568     0            
    377000   0.9544706      0.0043289896   0.93904317    -0.0048221966 
    378000   1.0411162      0.0047653842   1.025754      -0.0037942089 
    379000   0.99699996     0.0042623806   0.97786811    -0.0080540712 
    380000   0.95666383     0.0037748419   0.94511635    -0.0009178821 
    381000   1.0035948      0.0030548738   0.98878873    -0.0036549874 
    382000   0.99541531     0.0035246628   0.98435944     4.2990976e-06
    383000   1.0502615      0.0037095717   1.0349611     -0.0036307931 
    384000   1.0338533      0.003757874    1.0116069     -0.010759208  
    385000   0.9818822      0.004001352    0.96941516    -0.0015572349 
    386000   1.0522359      0.0045874169   1.0406323      8.7981038e-05
    387000   0.94394219     0.0036621878   0.92988806    -0.0035658802 
    388000   0.98584713     0.0045462503   0.97489327     0            
    389000   1.0001298      0.0041171243   0.98991612     0.0008988692 
    390000   1.0036049      0.0042994092   0.99245378     0            
    391000   1.1140801      0.0055926322   1.1031535      0.0014520818 
    392000   0.99427881     0.0050526366   0.98323127     0            
    393000   1.0447686      0.0038103398   1.0331601      0            
    394000   1.0685214      0.0043154932   1.0566489      0            
    395000   1.0177212      0.0035476247   1.0064132      0            
    396000   0.94275077     0.0039556316   0.93227576     0            
    397000   1.0092797      0.0039854948   0.9980655      0            
    398000   0.97769338     0.0051596715   0.96683012     0            
    399000   0.91551718     0.0038052104   0.90534477     0            
    400000   1.0751923      0.0047110194   1.0632457      0            
    401000   1.0531696      0.0047461484   1.0414677      0            
    402000   0.94959481     0.0045655135   0.93904375     0            
    403000   1.0345374      0.0051652165   1.0234224      0.000379864  
    404000   0.96941201     0.0030413389   0.95864077     0            
    405000   1.0418063      0.0052285382   1.0315401      0.0013093951 
    406000   1.0125886      0.002996532    1.0013376      0            
    407000   0.99437708     0.0038213507   0.98332845     0            
    408000   1.0270515      0.0041163203   1.0156398      0            
    409000   1.070764       0.0038789745   1.0588666      0            
    410000   0.96451065     0.0045988915   0.95379387     0            
    411000   0.95444558     0.0052880798   0.94384063     0            
    412000   0.99155403     0.0034113592   0.98053676     0            
    413000   1.0392493      0.0045867367   1.0277021      0            
    414000   0.9701763      0.0039216012   0.95939657     0            
    415000   0.99007797     0.0045809259   0.97907711     0            
    416000   1.0626255      0.0042565952   1.0508185      0            
    417000   0.943995       0.0038514866   0.93350617     0            
    418000   1.0497615      0.0044883072   1.0387702      0.00067272448
    419000   0.90996283     0.0022476458   0.9000968      0.00024467151
    420000   0.98222876     0.0052987201   0.97131511     0            
    421000   1.0861752      0.005813828    1.0703674     -0.0037392487 
    422000   1.0143756      0.004939056    1.0054951      0.00239027   
    423000   0.97756888     0.0029452062   0.96272871    -0.0039782922 
    424000   0.99954        0.0037224768   0.98437272    -0.0040612808 
    425000   1.0290113      0.0038689164   1.0175778      0            
    426000   1.0006022      0.0041533222   0.98900659    -0.00047776788
    427000   0.92612633     0.0040451571   0.91457325    -0.0012627873 
    428000   1.0501561      0.0051761645   1.0292266     -0.0092610545 
    429000   0.92300828     0.0033143697   0.90683152    -0.0059211153 
    430000   0.98005276     0.004020532    0.96071572    -0.0084475632 
    431000   0.96788204     0.0034782438   0.95264374    -0.0044840548 
    432000   1.0437134      0.004207022    1.0314548     -0.00066184821
    433000   0.90259451     0.0049416945   0.89256568     0            
    434000   0.96013443     0.0036563931   0.94946627     0            
    435000   1.0396474      0.0031809649   1.0280957      0            
    436000   0.97989129     0.0046862437   0.96900361     0            
    437000   1.0640427      0.0047186223   1.05222        0            
    438000   0.92808283     0.0025201947   0.91777079     0            
    439000   1.0282434      0.0047674434   1.0129129     -0.0039056442 
    440000   1.0115236      0.0047173411   1.0005087      0.00022429608
    441000   1.007485       0.0030563117   0.99629069     0            
    442000   0.9925035      0.0031889567   0.98147568     0            
    443000   1.0635122      0.0048314588   1.0516954      0            
    444000   0.97826303     0.0049182984   0.96739344     0            
    445000   1.0115182      0.0038897861   1.0002806      1.46324e-06  
    446000   0.99581008     0.0039237264   0.98474553     0            
    447000   1.0700258      0.0046120519   1.0581366      0            
    448000   0.94228526     0.0038744488   0.93181542     0            
    449000   0.91120387     0.0047734289   0.90107938     0            
    450000   0.98940365     0.0048894551   0.9784257      1.5430702e-05
    451000   0.91745208     0.0035721898   0.90725817     0            
    452000   1.0441146      0.0048065828   1.0325133      0            
    453000   1.0152427      0.0036459611   1.0039622      0            
    454000   1.0193982      0.0042061125   1.0082086      0.00013710907
    455000   0.97235976     0.0040958876   0.96155576     0            
    456000   0.97717987     0.0042541774   0.96632231     0            
    457000   1.114867       0.0051110869   1.1024796      0            
    458000   1.0287486      0.0046378492   1.0174108      9.2754814e-05
    459000   0.98036457     0.0035844153   0.96947163     0            
    460000   0.95107078     0.0033094522   0.94050333     0            
    461000   1.0854689      0.0045722705   1.0734081      0            
    462000   0.95883819     0.0032681374   0.94818443     0            
    463000   0.96496889     0.004092246    0.95424701     0            
    464000   0.90379107     0.0045397115   0.89253188    -0.0012170621 
    465000   0.97103823     0.0034848969   0.95816488    -0.0020840415 
    466000   0.955859       0.0040860371   0.94490751    -0.00033084119
    467000   0.98347215     0.0035535277   0.97254468     0            
    468000   0.99760661     0.0035924278   0.9865221      0            
    469000   1.0779539      0.0045169212   1.0659766      0            
    470000   0.98379839     0.0046883626   0.9728673      0            
    471000   0.96965941     0.0033861971   0.95598447    -0.0029009439 
    472000   1.0398916      0.0046572382   1.0240254     -0.0043118783 
    473000   1.0616124      0.0044946079   1.0498167      0            
    474000   1.0391856      0.0049444056   1.0244695     -0.003169576  
    475000   1.0239518      0.0030636361   1.009992      -0.0025825627 
    476000   1.0040995      0.0040953398   0.99845286     0.0055100537 
    477000   1.0782143      0.0051920218   1.0662341      0            
    478000   0.93540874     0.0038703535   0.91085509    -0.014160217  
    479000   0.99384164     0.0046167544   0.97805076    -0.0047481943 
    480000   1.0165564      0.0036888768   1.000738      -0.0045233157 
    481000   1.0288663      0.0045591797   1.0096828     -0.007751665  
    482000   1.1380861      0.0051969728   1.1254407      0            
    483000   0.95727974     0.0039540846   0.9466433      0            
    484000   1.0014555      0.0046773591   0.98846457    -0.001863699  
    485000   1.0112357      0.0050930783   0.98982243    -0.010177324  
    486000   0.97105828     0.0044963035   0.95131656    -0.00895219   
    487000   0.97467103     0.0048961698   0.96384136     0            
    488000   0.972554       0.0037683713   0.95661976    -0.0051280857 
    489000   0.98714528     0.0044391735   0.97514603    -0.0010309763 
    490000   1.0610789      0.0037601452   1.0445797     -0.0047094591 
    491000   0.98766353     0.0044769498   0.97025205    -0.0064374358 
    492000   0.98252198     0.0038367656   0.97519013     0.0035850682 
    493000   1.0001903      0.0029075758   0.98737393    -0.0017031329 
    494000   1.0008961      0.0049070034   0.99017712     0.00040210602
    495000   0.95024202     0.0034833884   0.93484734    -0.0048364304 
    496000   0.94240179     0.0030654042   0.92465532    -0.0072753391 
    497000   1.0367363      0.0041295564   1.023048      -0.0021690371 
    498000   0.99527317     0.0044706786   0.98248082    -0.0017337574 
    499000   1.050233       0.0036272038   1.0385638      0            
    500000   0.99377153     0.0039103478   0.98272962     0            
    501000   1.063242       0.0045040823   1.0480304     -0.0033978383 
    502000   1.0377913      0.003838969    1.0221356     -0.0041247053 
    503000   0.98822946     0.0050563847   0.97554548    -0.0017036506 
    504000   0.97446528     0.0050421576   0.96405313     0.000415247  
    505000   0.94549059     0.0052483211   0.93224922    -0.0027359165 
    506000   1.0063978      0.0038054136   0.99521555     0            
    507000   1.0337892      0.0030121802   1.0208413     -0.001461335  
    508000   0.9638812      0.0033177262   0.94871087    -0.0044605329 
    509000   1.0282737      0.0044577481   1.0141395     -0.0027090035 
    510000   1.0330865      0.0044744784   1.0216032     -4.548336e-06 
    511000   1.0008523      0.0034358521   0.98973172     0            
    512000   1.0563087      0.0041898216   1.0399756     -0.0045963391 
    513000   1.0501246      0.0042809444   1.0337389     -0.0047176644 
    514000   1.0708048      0.0050242122   1.0589069      0            
    515000   1.0072905      0.0049836653   0.99609838     0            
    516000   1.0540477      0.0047375753   1.042336       0            
    517000   1.0300801      0.0031811304   1.0189433      0.00030848915
    518000   0.98952961     0.0050700992   0.97853484     0            
    519000   0.96336708     0.005095072    0.95305772     0.00039471471
    520000   1.0636816      0.004506546    1.0518629      0            
    521000   0.92682754     0.004522051    0.91044783    -0.0060816287 
    522000   0.92989278     0.0034191423   0.91545648    -0.0041041546 
    523000   1.0434782      0.0047092603   1.031884       0            
    524000   1.0781045      0.0048156356   1.0661255      0            
    525000   0.94660779     0.0035032495   0.93503236    -0.0010575649 
    526000   0.9912142      0.0041995642   0.98020071     0            
    527000   1.0505725      0.0042023054   1.0388995      0            
    528000   1.0307105      0.0044607937   1.0192581      0            
    529000   0.95517446     0.0037447623   0.94456141     0            
    530000   0.95858947     0.0030617116   0.94793847     0            
    531000   0.99378889     0.0039713387   0.98274679     0            
    532000   0.97588088     0.0040666989   0.96398923    -0.0010485326 
    533000   1.0179734      0.0037643477   1.0049999     -0.0016626677 
    534000   0.90435198     0.0043202251   0.89288842    -0.0014151993 
    535000   1.0667767      0.0038726615   1.0503545     -0.0045691925 
    536000   0.98910159     0.0038255226   0.97811157     0            
    537000   1.0481299      0.0038284797   1.036484       0            
    538000   1.0370598      0.0034639438   1.0208921     -0.0046447917 
    539000   0.95602486     0.0032755365   0.94540236     0            
    540000   1.0142972      0.005118638    0.99386705    -0.009160233  
    541000   1.0430138      0.0039647113   1.0246193     -0.006805489  
    542000   1.0024437      0.0044577458   0.98768351    -0.0036218893 
    543000   1.0515697      0.0046288377   1.0398856      0            
    544000   1.0095928      0.004041015    0.99837513     0            
    545000   0.97424302     0.0035098159   0.9634181      0            
    546000   0.9789966      0.0033990841   0.96848064     0.00036178011
    547000   1.0268951      0.0050544267   1.0154852      0            
    548000   1.0535088      0.0042426308   1.0422757      0.0004725915 
    549000   1.0197444      0.0031031964   1.0084139      0            
    550000   1.1046928      0.0055196046   1.0924184      0            
    551000   0.96037327     0.0031765504   0.94970246     0            
    552000   0.93941679     0.0030448568   0.92897882     0            
    553000   1.0587974      0.0045416901   1.0500987      0.0030657137 
    554000   1.0066904      0.0036472575   0.99550491     0            
    555000   1.0152289      0.0030171495   1.0039485      0            
    556000   1.0262178      0.004313088    1.0148154      0            
    557000   1.0862304      0.0040874074   1.0739887     -0.00017243237
    558000   0.96596582     0.0040065996   0.95380585    -0.0014270137 
    559000   0.99573742     0.0034191698   0.9783864     -0.0062872713 
    560000   1.0383853      0.0044910913   1.0268476      0            
    561000   1.033355       0.0045361621   1.0218733      0            
    562000   0.99133725     0.0039234949   0.98032239     0            
    563000   0.99044882     0.004673317    0.97944384     0            
    564000   1.0680572      0.0039962554   1.0525274     -0.0036624924 
    565000   0.97043128     0.0036212063   0.95808104    -0.0015676688 
    566000   1.045889       0.0046827994   1.034268       0            
    567000   0.93384391     0.0034900051   0.91973888    -0.0037289896 
    568000   0.98992673     0.0047292353   0.97892754     0            
    569000   0.97907673     0.0037772358   0.96391792    -0.0042801819 
    570000   1.0008619      0.0031724655   0.98974123     0            
    571000   1.0361129      0.0044471106   1.0246005      0            
    572000   1.0127896      0.0038035509   1.0015364      0            
    573000   1.0448042      0.0041636063   1.0331953      0            
    574000   1.0178118      0.0043348089   1.0065028      0            
    575000   1.1006856      0.0049219287   1.0884558      0            
    576000   1.0023109      0.0037406767   0.99117409     0            
    577000   1.0423296      0.0040975387   1.0307482      0            
    578000   0.96654046     0.0038149564   0.95580112     0            
    579000   0.93605266     0.0037727865   0.92565208     0            
    580000   0.85204766     0.002784924    0.84258047     0            
    581000   0.99345266     0.0035320945   0.9824143      0            
    582000   1.0815745      0.0047591797   1.0700401      0.00048310314
    583000   1.078952       0.0032083044   1.0669636      0            
    584000   0.96002851     0.003459042    0.95145879     0.0020972589 
    585000   0.87112444     0.003839225    0.85651922    -0.0049260562 
    586000   1.0140797      0.0042544107   1.0052081      0.0023959984 
    587000   1.0862742      0.0037153404   1.0702874     -0.0039170906 
    588000   1.0181258      0.0046403818   1.0068133      0            
    589000   1.0926272      0.0042826934   1.0804869      0            
    590000   1.0106356      0.0037032964   0.99935868    -4.7641853e-05
    591000   1.094135       0.0042861847   1.0821011      0.0001232055 
    592000   0.85433743     0.0037600529   0.84475679    -8.7994549e-05
    593000   1.0506933      0.0039246236   1.0301379     -0.0088809474 
    594000   0.9733729      0.0040389982   0.95949958    -0.0030580702 
    595000   0.94508871     0.0041333801   0.92631697    -0.0082707505 
    596000   1.0349996      0.0043253531   1.010815      -0.012684538  
    597000   1.0368744      0.0043362299   1.0154239     -0.0099297111 
    598000   1.0090955      0.0044351364   1.0056618      0.0077784217 
    599000   0.98343643     0.004129256    0.96762291    -0.0048864538 
    600000   1.0934732      0.0044427023   1.0732051     -0.0081183543 
    601000   1.0021473      0.0035894      0.98073761    -0.010274703  
    602000   1.0298934      0.0046643046   1.0101838     -0.0082663195 
    603000   0.95513276     0.0044672764   0.94452017     0            
    604000   0.92866064     0.0040069804   0.91361012    -0.0047320652 
    605000   0.96010541     0.0047052216   0.94943757     0            
    606000   0.99902793     0.0042699287   0.98792762     0            
    607000   1.002432       0.0045026845   0.98758414    -0.0037096784 
    608000   1.0603328      0.0045408314   1.04447       -0.0040813527 
    609000   0.95293901     0.0044295223   0.93861486    -0.0037359382 
    610000   0.97439663     0.0035907369   0.9571848     -0.0063851965 
    611000   0.96044795     0.0039395972   0.9497763      0            
    612000   1.0061319      0.0049739678   0.9954876      0.00053498951
    613000   1.0150986      0.003545112    0.99749768    -0.0063220555 
    614000   1.0257826      0.0043089519   1.0095491     -0.0048359289 
    615000   1.0564892      0.0032759503   1.0366164     -0.0081339561 
    616000   1.0444366      0.0048645997   1.0279677     -0.0048640458 
    617000   0.91679739     0.0038062506   0.90153218    -0.0050785659 
    618000   0.99817731     0.0045149846   0.98324727    -0.00383918   
    619000   1.0661783      0.0042844554   1.0542447     -8.7146908e-05
    620000   0.97742029     0.0040618596   0.96656006     0            
    621000   0.957039       0.0037661959   0.94640523     0            
    622000   0.91094076     0.0032106649   0.90034869    -0.00047051026
    623000   0.91488793     0.0036971216   0.90437689    -0.00034561488
    624000   1.0136345      0.0036466765   0.9953387     -0.007033227  
    625000   1.0184207      0.0045275468   1.0064218     -0.00068318023
    626000   1.0143977      0.0048306265   0.99526447    -0.0078621652 
    627000   1.0517337      0.0034728565   1.025165      -0.014882784  
    628000   1.0340385      0.0043762182   1.0157435     -0.0068056042 
    629000   0.97675155     0.0044456903   0.95372849    -0.012170268  
    630000   1.0483896      0.0045095605   1.028995      -0.0077458234 
    631000   0.97225824     0.0037922972   0.9624496      0.00099423578
    632000   1.0231973      0.0038932903   1.0045074     -0.0073210308 
    633000   1.0226612      0.0044910263   1.0145515      0.0032532163 
    634000   1.0494164      0.0046528501   1.0374307     -0.00032554362
    635000   1.0118853      0.0040218566   1.0006421      0            
    636000   0.98038421     0.0038986745   0.96949105     0            
    637000   1.0323718      0.0047270514   1.0204853     -0.00041576578
    638000   1.0104406      0.0053886028   0.99467578    -0.0045376898 
    639000   1.0070464      0.0032965796   0.99122907    -0.0046279596 
    640000   0.96747764     0.0040232293   0.95672788     0            
    641000   1.0745939      0.0048533716   1.0618855     -0.00076845319
    642000   0.90315786     0.003115459    0.88536476    -0.0077580138 
    643000   0.98958407     0.0037169934   0.97460676    -0.0039819377 
    644000   0.95757791     0.0040733524   0.94190246    -0.0050357012 
    645000   0.95682688     0.0033667575   0.94029516    -0.0059003103 
    646000   0.97296816     0.003366261    0.95487496    -0.0072824349 
    647000   0.99680522     0.0033925626   0.97311555    -0.012614059  
    648000   1.0331874      0.0041734108   1.0133868     -0.0083206654 
    649000   0.98023501     0.0037666274   0.96941838     7.4876205e-05
    650000   1.0173532      0.0034792822   0.99908697    -0.0069623108 
    651000   0.91785486     0.0041861354   0.9012884     -0.0063680735 
    652000   1.0649723      0.0039394818   1.0511454     -0.0019938744 
    653000   1.0521213      0.0040208907   1.0319386     -0.0084924858 
    654000   1.0543337      0.0046167806   1.0432604      0.00064159289
    655000   1.0092395      0.0042085504   0.99549919    -0.0025265474 
    656000   1.0023076      0.0039222245   0.98739219    -0.003778628  
    657000   1.0246187      0.0048411506   1.0100866     -0.0031474753 
    658000   0.95978544     0.0042992286   0.94299466    -0.0061264977 
    659000   1.1069164      0.004336564    1.0930327     -0.0015846245 
    660000   1.0610487      0.0040327478   1.0492593      0            
    661000   1.1144414      0.0047511274   1.0989878     -0.0030709098 
    662000   1.0335179      0.0032805167   1.0220344      0            
    663000   1.0691697      0.00451794     1.05729        0            
    664000   0.9015096      0.003564023    0.88667156    -0.0048212665 
    665000   0.99411801     0.0039783945   0.98307226     0            
    666000   0.99700223     0.0037085787   0.98137842    -0.0045460027 
    667000   0.96985565     0.005344816    0.95123153    -0.0078479385 
    668000   0.98819854     0.0037287423   0.97721856     0            
    669000   1.1189536      0.0051251833   1.1076411      0.0011203896 
    670000   1.0672201      0.0040996959   1.0513995     -0.0039625725 
    671000   0.98786721     0.0029843866   0.97594383    -0.00094707924
    672000   0.94688212     0.0031290818   0.9363607     -5.0542297e-07
    673000   0.9216846      0.0028466614   0.91004386    -0.0013998011 
    674000   1.0234162      0.0039690724   1.0073662     -0.0046786914 
    675000   1.0545394      0.0043323354   1.040729      -0.0020933091 
    676000   1.0235509      0.0032314901   1.0120533     -0.00012479134
    677000   0.94422252     0.0041680277   0.93340767    -0.00032348238
    678000   1.0078095      0.0047895069   0.99532385    -0.001287797  
    679000   0.96397733     0.00428254     0.95267945    -0.00058702446
    680000   0.9701819      0.0043865961   0.9594021      0            
    681000   0.99776294     0.0040875921   0.98667668     0            
    682000   0.94905418     0.0033850775   0.93434669    -0.0041624505 
    683000   1.0423003      0.0045311765   1.0230136     -0.0077055223 
    684000   0.92484563     0.0043853178   0.91009871    -0.004470856  
    685000   1.0366923      0.0036094576   1.0162545     -0.0089189344 
    686000   1.0556864      0.0035262863   1.0447552      0.00079864413
    687000   1.0076455      0.0039445697   0.99450841    -0.0019410349 
    688000   1.0059102      0.0042852141   0.99473347     0            
    689000   1.045077       0.0040108454   1.0300466     -0.00341843   
    690000   1.0440019      0.0046145978   1.0324019      0            
    691000   0.95395785     0.0027323583   0.94335832     0            
    692000   0.94781891     0.0042718921   0.93728759     0            
    693000   0.89689536     0.0043787191   0.88692985     0            
    694000   0.99260609     0.0037444432   0.98157698    -1.5123074e-07
    695000   0.98679641     0.0039181352   0.97583201     0            
    696000   1.0571173      0.0048178976   1.0453715      0            
    697000   1.0132964      0.0040755297   1.0020375      0            
    698000   0.97229296     0.0048794768   0.9614897      0            
    699000   1.096317       0.0057735956   1.0847539      0.00061824358
    700000   0.98575248     0.0036249776   0.97479967     0            
    701000   0.99883969     0.0049039048   0.98764696    -9.4508958e-05
    702000   1.0073106      0.0044152055   0.99615319     3.4897459e-05
    703000   1.0275352      0.0036505542   1.0161181      0            
    704000   1.0088159      0.0042113026   0.99319839    -0.004408432  
    705000   0.99155723     0.004105467    0.97715252    -0.003387401  
    706000   1.0070303      0.0040549924   0.99037172    -0.0054693624 
    707000   1.0601403      0.0043979767   1.0483616      6.3126675e-07
    708000   0.99782776     0.0037577511   0.98674078     0            
    709000   1.0768248      0.004751952    1.0601024     -0.0047577255 
    710000   1.0160249      0.0047367523   0.99982415    -0.0049115751 
    711000   0.95779385     0.0041743542   0.94288067    -0.0042710253 
    712000   0.96265015     0.0034803625   0.94736079    -0.0045932385 
    713000   1.0326868      0.0046790007   1.0198874     -0.0013250724 
    714000   0.99770876     0.0040603204   0.98956856     0.0029454512 
    715000   0.99658521     0.0049557061   0.98554906     3.7016243e-05
    716000   0.99523819     0.0044872418   0.98417999     0            
    717000   0.93536286     0.0038206417   0.92496994     0            
    718000   0.95968775     0.0038727379   0.94644052    -0.0025840245 
    719000   0.97154501     0.0023687923   0.95645613    -0.0042939412 
    720000   1.0652449      0.0044142925   1.0503786     -0.0030302645 
    721000   1.0996119      0.0035583258   1.0864088     -0.00098511551
    722000   0.90044922     0.0036420001   0.89316376     0.0027195318 
    723000   1.0158375      0.0039284387   1.0045504      0            
    724000   0.93395726     0.0045068287   0.92394144     0.00036148735
    725000   0.98110654     0.0051718266   0.97020535     0            
    726000   1.000857       0.0036603819   0.98500954    -0.0047267831 
    727000   1.0139322      0.0045771527   0.99963094    -0.0030353508 
    728000   0.99874096     0.0029429065   0.98353027    -0.0041135689 
    729000   1.0416468      0.0039566503   1.030073       0            
    730000   1.0459331      0.0051162471   1.0343116      0            
    731000   1.0255938      0.0040419447   1.0141983      0            
    732000   0.89974381     0.0040447731   0.88974665     0            
    733000   1.0188791      0.0052583388   1.0075583      0            
    734000   0.93868007     0.0040435564   0.92825029     0            
    735000   0.99552775     0.00446037     0.9839131     -0.00055323229
    736000   1.097167       0.0042007812   1.0849763      0            
    737000   1.0084365      0.0037982488   0.99723164     0            
    738000   0.94395993     0.0039520553   0.93361343     0.00014194352
    739000   1.0726236      0.0044884655   1.0617784      0.0010728722 
    740000   0.98318892     0.0044317467   0.9722646      0            
    741000   0.96249914     0.0039953009   0.95180471     0            
    742000   0.97837838     0.0038085474   0.9658152     -0.0016923113 
    743000   1.0091366      0.0039246016   0.99792401     0            
    744000   0.90001335     0.0038250364   0.8900132      0            
    745000   0.97388538     0.0041421057   0.95883413    -0.0042303078 
    746000   1.0418817      0.0041434288   1.0303053      0            
    747000   0.92474534     0.0030510843   0.9144704      0            
    748000   0.85954532     0.0035621207   0.84999481     0            
    749000   1.0403669      0.0042368434   1.0254573     -0.0033499032 
    750000   1.0179886      0.003792578    1.0066776      0            
    751000   1.0024215      0.0047443719   0.98650128    -0.0047821664 
    752000   1.0681463      0.003958724    1.0471301     -0.0091478697 
    753000   1.0355282      0.0044163469   1.0236713     -0.00035101416
    754000   0.98385943     0.0041785467   0.96838544    -0.0045422177 
    755000   0.96228809     0.0028642345   0.94998547    -0.0016105358 
    756000   0.97377077     0.0041828217   0.96295109     0            
    757000   1.0570439      0.0047286236   1.045299       0            
    758000   0.93868042     0.0038774096   0.92825064     0            
    759000   0.98956827     0.0047134516   0.97857307     0            
    760000   1.0372797      0.0039463585   1.0257544      0            
    761000   1.0387202      0.0049383615   1.0271788      0            
    762000   0.98874404     0.004265773    0.977758       0            
    763000   1.0525608      0.0047884723   1.0411519      0.0002862658 
    764000   0.94766257     0.0049041934   0.93713299     0            
    765000   0.96922226     0.0039716603   0.95845313     0            
    766000   1.0170729      0.0045417305   1.0057721      0            
    767000   0.95682349     0.0036725847   0.94662496     0.00043283968
    768000   1.0651463      0.0046383754   1.0535893      0.00027790227
    769000   1.0460983      0.004543806    1.034475       0            
    770000   0.89759555     0.0032327846   0.88762227     0            
    771000   1.0096677      0.0022656712   0.99844916     0            
    772000   0.97422637     0.0045178918   0.96340163     0            
    773000   1.0514326      0.0037974761   1.03975        0            
    774000   1.0288013      0.003793673    1.0176685      0.00029839766
    775000   1.1469233      0.0056192388   1.1341797      0            
    776000   0.96960955     0.0032113234   0.95883612     0            
    777000   0.96473683     0.0041788382   0.95401753     0            
    778000   1.0018075      0.0040852864   0.99067628     0            
    779000   0.99148965     0.005182534    0.97799737    -0.0024757298 
    780000   1.0088708      0.0039129163   0.99466014    -0.0030010139 
    781000   0.96353032     0.0036046068   0.94848624    -0.0043381809 
    782000   1.0811487      0.0049056388   1.0675605     -0.0015754333 
    783000   0.92741418     0.0041434034   0.91710958     0            
    784000   0.96667687     0.0044507535   0.95593602     0            
    785000   0.99593354     0.0036205714   0.98177734    -0.0030902708 
    786000   0.96757069     0.0040257566   0.9568199      0            
    787000   0.97679479     0.0035205559   0.96604877     0.00010725704
    788000   1.0537484      0.0044484591   1.0420401      0            
    789000   1.0371838      0.0052148193   1.0256595      0            
    790000   1.1561991      0.0043315152   1.1433524      0            
    791000   1.0444189      0.004293527    1.0328143      0            
    792000   1.0402462      0.0034756902   1.0286879      0            
    793000   0.9514068      0.0032435102   0.94083561     0            
    794000   0.96358346     0.0039633421   0.95287698     0            
    795000   0.97648005     0.0042722024   0.96563028     0            
    796000   1.0846757      0.0048133135   1.0726237      0            
    797000   0.99318901     0.0042760067   0.97828737    -0.003866203  
    798000   1.0674616      0.0036530482   1.0531043     -0.0024965653 
    799000   1.0120672      0.0046932211   0.99687017    -0.0039518817 
    800000   1.0125238      0.0045259998   1.0012735      0            
    801000   0.9924193      0.0044924258   0.98139241     0            
    802000   1.0510477      0.0049123474   1.0393694      0            
    803000   0.92318676     0.003483411    0.91304887     0.00011973367
    804000   0.99304656     0.0046540165   0.98201523     2.5186417e-06
    805000   1.1037183      0.0054018206   1.0914548      0            
    806000   1.0167492      0.0047292979   1.005452       0            
    807000   1.0226631      0.0034612957   1.0113001      0            
    808000   1.0668904      0.0038926196   1.0529475     -0.0020885949 
    809000   1.0807025      0.0042020573   1.0686947      0            
    810000   1.0233778      0.0043854235   1.0120069      0            
    811000   0.96174447     0.0031553456   0.95105842     0            
    812000   0.98322508     0.0040177093   0.97230035     0            
    813000   1.0383301      0.0035164197   1.0267931      0            
    814000   0.96430955     0.0044678067   0.953595       0            
    815000   1.0634641      0.0033706532   1.0468627     -0.0047851379 
    816000   1.0778218      0.0041575739   1.0662213      0.0003752968 
    817000   0.86675814     0.0027274115   0.8571275      0            
    818000   0.92175222     0.0042838136   0.90992147    -0.0015890624 
    819000   1.0403964      0.0038646976   1.0249189     -0.0039176332 
    820000   1.0463228      0.00482007     1.0319432     -0.0027537839 
    821000   0.9484256      0.0046102994   0.93620497    -0.0016825711 
    822000   0.99664316     0.0038588566   0.98556935     0            
    823000   1.0419297      0.0034946245   1.031069       0.00071629026
    824000   0.90622838     0.0033468719   0.89621307     5.3890576e-05
    825000   1.0505667      0.0032393584   1.0388937      0            
    826000   1.0292039      0.0048823562   1.0177683      0            
    827000   0.91613886     0.004353602    0.90631149     0.00035194184
    828000   1.0158116      0.0043615847   1.0045248      0            
    829000   1.018129       0.0042188394   1.0068164      0            
    830000   0.98101504     0.0033029078   0.97011487     0            
    831000   0.92391899     0.0032571133   0.91365322     0            
    832000   0.95398445     0.0040456556   0.93893078    -0.0044538402 
    833000   1.0491912      0.0041454359   1.0375335      0            
    834000   1.0575802      0.0036609435   1.0422283     -0.0036009933 
    835000   0.95224018     0.0046111781   0.94165962    -1.1294656e-07
    836000   0.98360201     0.0038146574   0.97128217    -0.0013909251 
    837000   1.016579       0.004817183    1.0052836      0            
    838000   1.0076314      0.0043010076   0.99643547     0            
    839000   1.045891       0.0037647832   1.03427        0            
    840000   1.021889       0.0039748333   1.0105347      0            
    841000   0.9916844      0.0035470385   0.98201377     0.0013480913 
    842000   1.0304269      0.0040608114   1.0189777      0            
    843000   1.0597519      0.0041615013   1.0479769      0            
    844000   0.97144712     0.0034085503   0.96065327     0            
    845000   0.949814       0.0032700463   0.93926051     0            
    846000   1.0353584      0.0041134416   1.0246293      0.00077491591
    847000   0.95686836     0.0034182676   0.94623648     0            
    848000   1.0078546      0.0043653957   0.99665619     0            
    849000   0.99222716     0.0043116804   0.97845963    -0.0027427828 
    850000   1.0340826      0.0054896442   1.0225927      0            
    851000   0.96234988     0.0036355118   0.9516571      0            
    852000   0.92645231     0.0031886506   0.9161584      0            
    853000   0.96112405     0.0043894881   0.95044506     1.6522836e-07
    854000   0.98131136     0.0045451234   0.9704079      0            
    855000   0.8524328      0.0038991269   0.84562245     0.0026611214 
    856000   1.0393481      0.0053311881   1.0254722     -0.0023276007 
    857000   1.0117059      0.0043231884   1.0004647      0            
    858000   1.0216821      0.0039986883   1.01033        0            
    859000   1.0199019      0.0050413092   1.0085696      0            
    860000   0.97496239     0.0033908407   0.96412947     0            
    861000   1.0001453      0.0046970134   0.98903256     0            
    862000   1.0229808      0.0046735518   1.0116143      0            
    863000   1.1347958      0.0050987268   1.1160438     -0.0061430871 
    864000   0.99201231     0.0039949276   0.97759695    -0.0033929974 
    865000   1.0217392      0.0032998009   1.0066345     -0.0037519813 
    866000   1.0067374      0.0043503529   0.99241027    -0.0031411163 
    867000   0.97010994     0.0047938236   0.95588018    -0.0034507655 
    868000   0.98203178     0.0044253701   0.9647219     -0.0063984231 
    869000   0.99483476     0.003880413    0.97931396    -0.0044670862 
    870000   1.0199166      0.0050809559   1.0064336     -0.0021505644 
    871000   1.059077       0.0052109279   1.0424156     -0.004893893  
    872000   0.94863252     0.0030903041   0.93809216     0            
    873000   1.0223367      0.003727777    1.0109774      0            
    874000   1.0006156      0.0038230536   0.98529489    -0.0042027343 
    875000   0.95318852     0.0041540548   0.9345711     -0.0080264337 
    876000   0.98335681     0.0034669025   0.96764487    -0.0047857588 
    877000   1.0552266      0.0041296684   1.0435018      0            
    878000   1.0128479      0.0034808281   1.001594       0            
    879000   0.98733084     0.0042761431   0.9763605      0            
    880000   0.96620062     0.0038370272   0.95546506     0            
    881000   0.95295276     0.0025195104   0.94236439     0            
    882000   0.9785108      0.0048441972   0.96717784    -0.00046061962
    883000   1.0148502      0.0045402077   0.9990566     -0.0045174407 
    884000   1.0292964      0.0045262621   1.0115215     -0.0063383185 
    885000   1.0552221      0.004177049    1.0434974      0            
    886000   0.98026759     0.0044102449   0.96483568    -0.0045400449 
    887000   1.0774866      0.0040147526   1.0620567     -0.0034578977 
    888000   0.98117247     0.0037492647   0.96752673    -0.0027438249 
    889000   1.0914829      0.0041278272   1.0784985     -0.00085677082
    890000   0.92671969     0.004682734    0.91183995    -0.004582854  
    891000   0.95768093     0.0037745329   0.9422101     -0.0048299357 
    892000   1.0312661      0.0049923597   1.0198076      0            
    893000   0.973372       0.0035312481   0.96255676     0            
    894000   0.9763722      0.0041766611   0.96552362     0            
    895000   0.88634407     0.0031420732   0.87649581     0            
    896000   1.077794       0.0037361755   1.0660599      0.00024131181
    897000   0.98195025     0.0034724217   0.96866586    -0.0023738267 
    898000   1.0132943      0.0043981857   1.0020355      0            
    899000   0.84080015     0.0032339669   0.83002479    -0.001433136  
    900000   1.0198695      0.0035412929   1.0044627     -0.0040749529 
    901000   1.0067431      0.0038731757   0.99563738     8.030839e-05 
    902000   0.92216603     0.0041236457   0.91337428     0.0014545431 
    903000   1.0073244      0.0030932671   0.99600164    -0.00013024789
    904000   1.0044251      0.003585301    0.99326485     0            
    905000   0.91655981     0.0034736435   0.90637581     0            
    906000   1.0096143      0.0034587101   0.99839633     0            
    907000   1.0166947      0.0035224349   1.00063       -0.0047680283 
    908000   1.0222987      0.0048577979   1.0153108      0.0043708831 
    909000   0.97230917     0.0031827986   0.96165672     0.00015098808
    910000   1.0192391      0.0037879803   1.0079142      0            
    911000   1.0580505      0.0046210166   1.0424629     -0.0038314989 
    912000   1.1349226      0.0041761647   1.1209802     -0.0013320821 
    913000   1.0346374      0.0039642259   1.0231414      0            
    914000   1.0862258      0.0054939319   1.0741566      0            
    915000   1.0204397      0.0039998888   1.0091015      0            
    916000   1.032451       0.0050717514   1.0209793      0            
    917000   1.0284837      0.0038182964   1.0170561      0            
    918000   0.89705367     0.0039182851   0.88708641     0            
    919000   0.95786624     0.003782609    0.94722329     0            
    920000   0.99768814     0.003738171    0.98246168    -0.0041410373 
    921000   0.99070755     0.0048792542   0.97969969     0            
    922000   0.96925973     0.0041276405   0.95693989    -0.0015502799 
    923000   0.96083718     0.0045608412   0.94546398    -0.0046972288 
    924000   0.96770045     0.0041594414   0.95209654    -0.0048516805 
    925000   0.94322108     0.0035154347   0.93234821    -0.00039263884
    926000   0.96116546     0.0040279662   0.944354      -0.0061318419 
    927000   0.99034993     0.0031114099   0.97717022    -0.0021758185 
    928000   0.98260577     0.004592751    0.97168793     0            
    929000   1.0658651      0.0044244462   1.0544073      0.00038513634
    930000   0.97885784     0.0028889763   0.96301349    -0.0049681478 
    931000   0.96075239     0.0045507141   0.9449433     -0.0051340572 
    932000   1.1157698      0.0054499876   1.1033593     -1.3062481e-05
    933000   1.055902       0.0039523787   1.0453071      0.0011373926 
    934000   1.0154874      0.005027319    1.0042042      0            
    935000   0.98701747     0.0042548951   0.97605061     0            
    936000   1.0605175      0.0031868025   1.048734       0            
    937000   1.0555419      0.0040273079   1.0438136      0            
    938000   1.0385712      0.0036890068   1.0270315      0            
    939000   1.0220794      0.0033463886   1.010723       0            
    940000   0.96609107     0.0045428374   0.95535672     0            
    941000   0.99620718     0.0045514675   0.98513821     0            
    942000   1.065249       0.0037955979   1.0528383     -0.00057460884
    943000   0.87993754     0.0046851485   0.86731629    -0.0028441588 
    944000   1.0093972      0.0045678598   0.99499583    -0.0031857982 
    945000   1.0256508      0.0038827114   1.0142547      0            
    946000   1.1226741      0.0047414709   1.1101999      0            
    947000   0.95410155     0.004886414    0.94107329    -0.0024271305 
    948000   1.048443       0.0050695832   1.0367936      0            
    949000   1.0247272      0.0048042683   1.0133413      0            
    950000   1.0713039      0.0048844636   1.0594005      0            
    951000   0.9604544      0.0046439741   0.94978269     0            
    952000   1.0653576      0.0049326407   1.052699      -0.00082126583
    953000   1.0199398      0.00351517     1.0037414     -0.0048657992 
    954000   1.0474249      0.0038729319   1.0357868      0            
    955000   1.0243961      0.0050026017   1.0130139      0            
    956000   0.96335443     0.0046042533   0.9526505      0            
    957000   0.98226555     0.0039923713   0.97135149     0            
    958000   0.96395903     0.0039596723   0.95324837     0            
    959000   1.0202639      0.004275267    1.0089277      0            
    960000   1.0134511      0.0050210049   1.002623       0.00043248798
    961000   1.0372869      0.0033046066   1.0257615      0            
    962000   1.0135496      0.0040787555   1.002288       0            
    963000   1.0025542      0.0039183707   0.99141466     0            
    964000   1.0412164      0.0036443753   1.0296474      0            
    965000   1.0150662      0.0048150494   1.0038028      1.5135236e-05
    966000   1.0393077      0.00500389     1.0277599      0            
    967000   1.0127538      0.0032543213   1.001501       0            
    968000   0.9712212      0.0044648552   0.96042985     0            
    969000   1.0308469      0.0047009805   1.019393       0            
    970000   1.1464583      0.0057145585   1.1337237      3.8280732e-06
    971000   1.036916       0.0038597852   1.0253947      0            
    972000   0.96223929     0.0030169754   0.95154775     0            
    973000   1.1112869      0.0042643603   1.0972293     -0.0017098779 
    974000   1.0206227      0.003859014    1.0065506     -0.0027318933 
    975000   0.98086444     0.0040767377   0.96996594     0            
    976000   1.0618935      0.0048900984   1.045769      -0.0043257315 
    977000   0.96312148     0.0051890451   0.95282569     0.00040556309
    978000   0.98271038     0.0033688056   0.97194615     0.00015478074
    979000   0.95322682     0.0038067873   0.93787173    -0.0047636772 
    980000   0.96680783     0.0047055034   0.95584098    -0.00022454355
    981000   0.87652691     0.0035080946   0.86619041    -0.00059731944
    982000   1.0719697      0.0043266275   1.0566449     -0.0034140134 
    983000   1.0093582      0.0028749068   0.99683246    -0.0013107026 
    984000   0.99996201     0.0034094065   0.98467938    -0.0041719435 
    985000   1.0515383      0.0036359743   1.0398545      0            
    986000   1.0506706      0.0041311398   1.034424      -0.004572439  
    987000   1.0185959      0.0035432309   1.0070305     -0.00024765985
    988000   0.99694015     0.0038385726   0.98361155    -0.0022514906 
    989000   1.0016458      0.0040041036   0.98742183    -0.0030945502 
    990000   1.0146103      0.0042126992   0.9996453     -0.0036915431 
    991000   0.8851838      0.0030540116   0.87257692    -0.002771495  
    992000   0.96599529     0.0051277433   0.94833892    -0.0069230936 
    993000   1.0343795      0.0045847601   1.0198103     -0.0030760689 
    994000   1.0147036      0.0033864688   0.99856771    -0.0048614324 
    995000   1.0426106      0.0048889056   1.0275807     -0.0034453551 
    996000   1.0291721      0.0028555492   1.0177369      0            
    997000   1.0011041      0.0050233541   0.99000592     2.5238525e-05
    998000   1.0345554      0.00494613     1.0221371     -0.00092324636
    999000   1.0297772      0.003423863    1.0177279     -0.00060736863
   1000000   1.0142916      0.0047371714   1.0030217      0            
Loop time of 17.0273 on 1 procs for 1000000 steps with 405 atoms

Performance: 50742185.584 tau/day, 58729.381 timesteps/s
99.0% CPU use with 1 MPI tasks x no OpenMP threads

MPI task timing breakdown:
Section |  min time  |  avg time  |  max time  |%varavg| %total
---------------------------------------------------------------
Pair    | 0.79135    | 0.79135    | 0.79135    |   0.0 |  4.65
Bond    | 0.041868   | 0.041868   | 0.041868   |   0.0 |  0.25
Neigh   | 3.1917     | 3.1917     | 3.1917     |   0.0 | 18.74
Comm    | 0.85665    | 0.85665    | 0.85665    |   0.0 |  5.03
Output  | 0.33541    | 0.33541    | 0.33541    |   0.0 |  1.97
Modify  | 10.462     | 10.462     | 10.462     |   0.0 | 61.44
Other   |            | 1.348      |            |       |  7.92

Nlocal:            405 ave         405 max         405 min
Histogram: 1 0 0 0 0 0 0 0 0 0
Nghost:             67 ave          67 max          67 min
Histogram: 1 0 0 0 0 0 0 0 0 0
Neighs:              1 ave           1 max           1 min
Histogram: 1 0 0 0 0 0 0 0 0 0

Total # of neighbors = 1
Ave neighs/atom = 0.0024691358
Ave special neighs/atom = 0
Neighbor list builds = 212383
Dangerous builds = 0
Total wall time: 0:00:17
