fix fLANG all langevin 1.0 1.0 1.0 100
neigh_modify exclude molecule/intra all
fix rigidNVE linked_vesicle rigid/nve molecule
  1 rigid bodies with 5 atoms
fix NVE synapsin nve 1.0 1.0 1.0

    ##======================================##
    ## Output
    ##======================================##

thermo 1000
thermo_style custom step temp press etotal epair
thermo_modify flush yes
timestep 0.01

    ##======================================##
    ## Equilibration before output
    ##======================================##


    ##======================================##
    ## Run with output
    ##======================================##

fix enforce_2d all enforce2d
dump 2 all custom 1000 Results_eps_attr6_eps_rep1_range2_attr_with_repFalse_n_synapsin400_n_vesicles1/Movie_2d_eps_attr6_eps_rep1_range2_attr_with_repFalse_n_synapsin400_n_vesicles1.xyz id type mol x y z
run 1000000
Generated 0 of 3 mixed pair_coeff terms from geometric mixing rule
Neighbor list info ...
  update every 1 steps, delay 1 steps, check yes
  max neighbors/atom: 2000, page size: 100000
  master list distance cutoff = 11.52462
  ghost atom cutoff = 11.52462
  binsize = 5.7623102, bins = 55 55 1
  1 neighbor lists, perpetual/occasional/extra = 1 0 0
  (1) pair cosine/squared, perpetual
      attributes: half, newton on
      pair build: half/bin/newton
      stencil: half/bin/2d
      bin: standard
Per MPI rank memory allocation (min/avg/max) = 8.526 | 8.526 | 8.526 Mbytes
   Step          Temp          Press          TotEng         E_pair    
         0   0.99441908    -0.013071225    0.98336998     0            
      1000   1.052877       0.0040548885   1.0411809      2.5044906e-06
      2000   0.97902644     0.0030040622   0.96849889     0.00035052091
      3000   1.0601207      0.0035583022   1.0483416      0            
      4000   1.0466423      0.0043625821   1.0350129      0            
      5000   1.0005436      0.0035020426   0.98945454     2.8061539e-05
      6000   0.97028404     0.0030784247   0.95950311     0            
      7000   0.9429228      0.0035389451   0.9342467      0.001800821  
      8000   1.070792       0.0042930144   1.0588943      0            
      9000   1.099818       0.0040939823   1.0875978      0            
     10000   1.0652914      0.0046631726   1.047573      -0.0058817791 
     11000   0.96166676     0.0042665641   0.94234583    -0.0086357397 
     12000   0.93403983     0.0029562572   0.91136994    -0.012291663  
     13000   0.94904509     0.0045782206   0.92287542    -0.01562472   
     14000   1.0550199      0.0042172986   1.0307313     -0.012566131  
     15000   0.95572838     0.0048570428   0.9282354     -0.016873773  
     16000   0.95839907     0.0038308653   0.91853225    -0.029217942  
     17000   1.001438       0.0036146473   0.96223058    -0.028080306  
     18000   1.0783614      0.0044232004   1.0394633     -0.026916273  
     19000   0.99911654     0.0043181169   0.96507068    -0.022944571  
     20000   0.97382522     0.0042693577   0.95010896    -0.012895976  
     21000   0.95002924     0.0036109824   0.91749282    -0.021980535  
     22000   0.88814935     0.0039859105   0.85619594    -0.02208509   
     23000   0.91453503     0.0037661458   0.88363305    -0.020740475  
     24000   0.95247654     0.0036233839   0.91595773    -0.025935741  
     25000   0.96597998     0.0038302471   0.92597816    -0.029268703  
     26000   0.98607238     0.004551438    0.94619928    -0.028916734  
     27000   1.0123262      0.0045034054   0.97412037    -0.026957768  
     28000   1.0188159      0.0046994132   0.99544138    -0.012054319  
     29000   1.0335112      0.0050038014   0.99778772    -0.024240013  
     30000   0.97823245     0.0026262416   0.94159445    -0.025768747  
     31000   1.0090794      0.0043823501   0.97111668    -0.026750747  
     32000   1.0493229      0.0041842275   1.0145709     -0.023092894  
     33000   1.0255317      0.0043804719   0.98839914    -0.025737779  
     34000   0.96052856     0.0032680492   0.92437029    -0.025485734  
     35000   1.0477297      0.0037238434   1.0097724     -0.026315847  
     36000   0.99482843     0.0039611988   0.95607706    -0.02769772   
     37000   1.0179001      0.0049239621   0.98166713    -0.024922928  
     38000   0.99188193     0.0029098342   0.94749299    -0.033368029  
     39000   0.90038898     0.0043131474   0.85012393    -0.040260733  
     40000   1.0306198      0.0034798481   0.97805133    -0.041117097  
     41000   0.94649538     0.0035096844   0.89979362    -0.036185141  
     42000   1.0321406      0.0035841307   0.98830306    -0.032369293  
     43000   0.99193891     0.0044935237   0.94163822    -0.039279152  
     44000   1.0430574      0.0042183676   0.99636961    -0.035098296  
     45000   1.0238743      0.0048816698   0.97792888    -0.034569079  
     46000   1.0357256      0.0036436059   0.98424834    -0.039969195  
     47000   1.0025949      0.0041144683   0.95104126    -0.040413682  
     48000   1.0519409      0.0039694797   1.0194374     -0.020815201  
     49000   1.0125378      0.0036249848   0.96588345    -0.035403961  
     50000   0.96367181     0.0029642292   0.91394977    -0.039014566  
     51000   1.0124676      0.0049025329   0.96001395    -0.04120403   
     52000   1.0976278      0.0037890241   1.0653381     -0.020093858  
     53000   1.0351951      0.0038538916   0.99603714    -0.027655745  
     54000   1.0689259      0.00470215     1.0312235     -0.02582542   
     55000   0.98015103     0.0045808941   0.92386171    -0.045398756  
     56000   1.0466373      0.0050265239   0.97927413    -0.055733904  
     57000   0.98548314     0.0039938835   0.92408572    -0.050447606  
     58000   0.97730977     0.003566277    0.91349615    -0.05295462   
     59000   1.0104176      0.0038493139   0.94666438    -0.05252634   
     60000   1.0169244      0.0037704309   0.95141567    -0.054209567  
     61000   1.0481429      0.0042761229   0.98281807    -0.053678758  
     62000   0.98335247     0.0038826392   0.9248271     -0.047599229  
     63000   1.0718131      0.0039604105   1.025885      -0.034018998  
     64000   0.98787646     0.0048877592   0.92704489    -0.049855161  
     65000   1.0814237      0.0039012899   1.0199739     -0.049434032  
     66000   1.0348859      0.0035395448   0.97365258    -0.049734633  
     67000   1.0058344      0.0042886334   0.94406877    -0.050589726  
     68000   1.0015016      0.004717491    0.93314818    -0.057225595  
     69000   1.0008022      0.0037933721   0.94335339    -0.046328836  
     70000   1.0417935      0.0044066444   0.95177573    -0.078442289  
     71000   0.97271346     0.0036815466   0.89268029    -0.069225238  
     72000   1.0462506      0.0041788151   0.96244305    -0.072182517  
     73000   0.97226499     0.0033568663   0.88489993    -0.07656212   
     74000   0.91914884     0.0041742559   0.83096961    -0.077966465  
     75000   1.0474502      0.0036351372   0.96350161    -0.072310212  
     76000   1.074793       0.0044710351   0.98591067    -0.076940229  
     77000   1.0342473      0.0036574133   0.96167109    -0.061084591  
     78000   1.0070889      0.0033935047   0.9339667     -0.061932296  
     79000   1.0105653      0.0042186754   0.94626918    -0.053067616  
     80000   1.0712807      0.0052223238   0.98289313    -0.076484398  
     81000   0.96972673     0.0039937521   0.88202042    -0.076931567  
     82000   0.99778876     0.0035055185   0.90571811    -0.080984107  
     83000   0.99665084     0.0036602983   0.91468631    -0.070890626  
     84000   0.93024748     0.0037668726   0.84262684    -0.077284566  
     85000   0.9628145      0.0041577996   0.89213069    -0.059985868  
     86000   1.0090327      0.0038081675   0.93445928    -0.063361902  
     87000   0.96862285     0.0046938715   0.89154786    -0.066312515  
     88000   0.98798433     0.0030167516   0.91493616    -0.062070562  
     89000   0.98479388     0.0039644026   0.90861988    -0.065231841  
     90000   0.98075807     0.0048509871   0.90821293    -0.061647837  
     91000   0.99360193     0.0031739801   0.92177479    -0.060787117  
     92000   1.0076737      0.0049067811   0.93525887    -0.061218493  
     93000   1.0465835      0.004291403    0.980641      -0.054313766  
     94000   1.0042757      0.0035053434   0.942552      -0.050565057  
     95000   1.009358       0.0041446769   0.92863739    -0.069505567  
     96000   1.0483126      0.003503977    0.97940835    -0.057256362  
     97000   0.95669269     0.0042493165   0.87799894    -0.068063833  
     98000   0.95753998     0.0037518395   0.88385446    -0.06304619   
     99000   0.96847953     0.004963987    0.90468734    -0.053031308  
    100000   0.98279243     0.0035497266   0.90375387    -0.068118644  
    101000   1.0979217      0.0044974098   1.0262547     -0.059467821  
    102000   0.96490134     0.0042125144   0.90339221    -0.050787999  
    103000   1.0673468      0.0041215203   1.0074432     -0.048044225  
    104000   0.95818955     0.004183326    0.90391421    -0.043628795  
    105000   1.0017093      0.0039248731   0.92848556    -0.062093661  
    106000   0.96871979     0.0031058978   0.91911494    -0.038841297  
    107000   1.0014088      0.0031967042   0.94401794    -0.046264124  
    108000   0.96394885     0.0040736671   0.91097957    -0.042258739  
    109000   0.96338979     0.0035610364   0.9071755     -0.045509954  
    110000   1.054968       0.0055016063   0.99084118    -0.052404939  
    111000   1.0429718      0.004640628    0.99381438    -0.037568873  
    112000   0.99828991     0.0044810458   0.94357671    -0.043621092  
    113000   1.0170051      0.0041009044   0.97087414    -0.034830926  
    114000   1.0315276      0.003866458    0.97880153    -0.041264659  
    115000   1.1148065      0.004155499    1.0573063     -0.045113408  
    116000   1.044081       0.0030353548   0.9810663     -0.051413815  
    117000   1.0067849      0.0040388733   0.94788623    -0.047712211  
    118000   1.0557593      0.0037673526   0.99360351    -0.050425123  
    119000   1.0390722      0.0044448925   0.96978467    -0.057742238  
    120000   1.0168623      0.0038476547   0.95954056    -0.046023306  
    121000   1.0474528      0.0037839578   0.98934617    -0.046468258  
    122000   0.9712842      0.0046140287   0.91517757    -0.045314584  
    123000   1.042575       0.0050387789   0.98183542    -0.049155386  
    124000   0.99370893     0.0034223482   0.92728805    -0.055379678  
    125000   0.97511364     0.0043546854   0.91361106    -0.050667981  
    126000   1.0002257      0.0040111087   0.93452644    -0.054585683  
    127000   1.0064791      0.0049772667   0.93247821    -0.062817803  
    128000   1.077572       0.0041571467   1.0139103     -0.051688728  
    129000   0.99072717     0.0037753705   0.91436863    -0.065350462  
    130000   0.99281383     0.0041343767   0.9273504     -0.054432168  
    131000   1.0325588      0.0042947716   0.9679678     -0.053118123  
    132000   0.93937301     0.0035173435   0.88139405    -0.047541476  
    133000   0.99979805     0.002470614    0.93338984    -0.055299339  
    134000   1.0537303      0.0040578702   0.96313186    -0.078890294  
    135000   1.0454006      0.0042977076   0.95500785    -0.078777171  
    136000   0.90476509     0.0041414215   0.81724602    -0.07746613   
    137000   0.99723586     0.0040254992   0.91349207    -0.072663394  
    138000   0.9526336      0.0028242858   0.87970703    -0.062341747  
    139000   0.96491299     0.0039542599   0.88782172    -0.066370013  
    140000   0.97537198     0.0036570673   0.89762351    -0.066911003  
    141000   1.0035073      0.0046650071   0.92853629    -0.063820968  
    142000   1.0532505      0.0037452411   0.98383568    -0.057712035  
    143000   0.93405006     0.0038822236   0.85637791    -0.06729382   
    144000   1.0512888      0.0040109515   0.98601996    -0.053587888  
    145000   0.91587725     0.0034141009   0.84424025    -0.061460585  
    146000   0.94718523     0.0043072912   0.87348629    -0.063174658  
    147000   1.0332705      0.0049410747   0.9548919     -0.066897811  
    148000   0.99309777     0.0035943494   0.91727688    -0.064786471  
    149000   0.90665361     0.0035311203   0.82789979    -0.068679896  
    150000   0.99383457     0.0037359835   0.91693272    -0.065859245  
    151000   0.97547508     0.004281601    0.90870767    -0.055928805  
    152000   1.0566609      0.0045099845   0.9737561     -0.071164142  
    153000   0.99770762     0.0043861885   0.90410852    -0.082513458  
    154000   1.0139512      0.0048152377   0.92560416    -0.077080918  
    155000   1.1088408      0.0036216037   1.0184825     -0.078037784  
    156000   1.0708965      0.0037074622   0.98072827    -0.078269334  
    157000   0.96420113     0.0032210139   0.86595628    -0.087531497  
    158000   1.0434609      0.0035530267   0.9263375     -0.10552936   
    159000   0.96392542     0.0032912523   0.85439846    -0.098816685  
    160000   1.0140832      0.0049275757   0.90286818    -0.099947456  
    161000   0.96638559     0.0042477224   0.85970426    -0.095943713  
    162000   1.0420961      0.0041529155   0.90499212    -0.12552518   
    163000   1.0193889      0.0042134206   0.89433666    -0.11372568   
    164000   1.03168        0.0046749857   0.9165236     -0.10369326   
    165000   1.0470998      0.0039855453   0.94489113    -0.090574194  
    166000   0.9252363      0.0030368718   0.8262586     -0.088697295  
    167000   0.99550288     0.0052734825   0.91875137    -0.065690371  
    168000   1.0828695      0.0038050505   0.97810379    -0.092733831  
    169000   1.0484906      0.0030382776   0.93620274    -0.100638     
    170000   0.98994712     0.0039069789   0.89568808    -0.083259633  
    171000   1.0036934      0.0049296236   0.90282016    -0.089721102  
    172000   1.0380925      0.0045078497   0.9259358     -0.10062238   
    173000   1.0136874      0.0042144945   0.90077809    -0.10164612   
    174000   1.0484418      0.0042108014   0.92296412    -0.11382834   
    175000   0.9814839      0.0033617117   0.86018486    -0.11039367   
    176000   0.95060977     0.0034605287   0.82341229    -0.11663515   
    177000   0.98711056     0.0029029091   0.86378506    -0.11235761   
    178000   0.96651382     0.0034009031   0.85289312    -0.10288165   
    179000   1.0121955      0.0043788714   0.90699783    -0.093951021  
    180000   0.96892635     0.0044242357   0.85399991    -0.10416059   
    181000   0.97749907     0.0033430881   0.87823262    -0.088405348  
    182000   0.98441138     0.0041694015   0.86229366    -0.11117981   
    183000   1.0421152      0.00392487     0.93037473    -0.10016139   
    184000   1.056989       0.0037302049   0.94090423    -0.10434049   
    185000   1.0301301      0.0041900252   0.91564135    -0.10304286   
    186000   1.0021189      0.0037092648   0.88933998    -0.10164429   
    187000   0.98410908     0.0036579424   0.87755067    -0.095623867  
    188000   1.0512215      0.0044581225   0.93421414    -0.10532716   
    189000   0.91345333     0.0041633659   0.78684408    -0.11645977   
    190000   1.056979       0.0037396474   0.93992536    -0.10530939   
    191000   1.0488103      0.00430214     0.9298471     -0.10730979   
    192000   1.0414845      0.0041646439   0.94493947    -0.084972932  
    193000   0.99810071     0.0034480481   0.88599159    -0.10101911   
    194000   0.99570736     0.0034114258   0.87220725    -0.11243669   
    195000   1.0535188      0.0036821555   0.94514367    -0.096669338  
    196000   1.0467151      0.003512424    0.94985644    -0.085228446  
    197000   0.97729677     0.0039535031   0.88654174    -0.079896176  
    198000   0.92282572     0.0038621186   0.82906133    -0.083510769  
    199000   0.96052475     0.0036771253   0.8549863     -0.094865957  
    200000   0.99177718     0.0039086039   0.89685226    -0.083905177  
    201000   1.0163833      0.004923348    0.91634934    -0.088740794  
    202000   1.0156097      0.0040816888   0.92813531    -0.076189811  
    203000   0.94582317     0.0028615636   0.85639491    -0.078919114  
    204000   0.96725252     0.0045276017   0.87928737    -0.077217897  
    205000   0.96699038     0.0035743      0.87536782    -0.080878225  
    206000   0.97169449     0.0036817043   0.86860995    -0.092287936  
    207000   1.0427121      0.0045265653   0.95410371    -0.07702274   
    208000   0.96600854     0.0042975916   0.87661631    -0.078658803  
    209000   1.0097737      0.0041345745   0.91606949    -0.082484548  
    210000   1.0173294      0.0048738305   0.92725003    -0.078775715  
    211000   1.0448176      0.0045804719   0.9662577     -0.066950817  
    212000   0.97957141     0.0045198994   0.88737066    -0.081316626  
    213000   0.96445957     0.0036404869   0.84900239    -0.10474097   
    214000   1.0301781      0.0036078904   0.92898398    -0.089747742  
    215000   1.0061175      0.0052713897   0.90274022    -0.092198149  
    216000   1.0122877      0.0041250457   0.91728391    -0.083756142  
    217000   0.9412143      0.0033041922   0.8382118     -0.092544562  
    218000   1.0085482      0.0040786346   0.89632779    -0.10101433   
    219000   0.99989495     0.0044847912   0.89300279    -0.095782217  
    220000   1.0605191      0.0043335467   0.94967395    -0.099061578  
    221000   1.0927024      0.0044165578   0.98472298    -0.095838318  
    222000   1.0088239      0.0037647242   0.90758193    -0.09003278   
    223000   0.97042851     0.0035063155   0.87230549    -0.08734048   
    224000   1.0112302      0.0055140449   0.92908756    -0.070906714  
    225000   1.0157901      0.0028385948   0.93097771    -0.073525836  
    226000   0.94340385     0.0042093343   0.84067216    -0.092249426  
    227000   1.0643731      0.0047990083   0.96060486    -0.091941915  
    228000   1.0351999      0.0037766868   0.93786956    -0.085828166  
    229000   1.0714768      0.0042981903   0.97231595    -0.087255567  
    230000   0.98576677     0.0037323047   0.8849041     -0.089909705  
    231000   1.0124879      0.003541796    0.90897303    -0.092265001  
    232000   1.0671208      0.0047101233   0.95774627    -0.097517668  
    233000   0.97433375     0.004758724    0.88326697    -0.080240845  
    234000   0.93057695     0.0032244183   0.82136092    -0.098876285  
    235000   0.98810748     0.0041683225   0.86043938    -0.11668913   
    236000   1.1078908      0.0037984699   0.97497829    -0.12060265   
    237000   1.07559        0.0043890563   0.93404798    -0.12959103   
    238000   1.0059877      0.0054517873   0.86445856    -0.13035152   
    239000   0.94047173     0.0024636497   0.8147164     -0.11530565   
    240000   0.97628432     0.0046679853   0.84277548    -0.12266123   
    241000   0.92945236     0.0034175193   0.78509426    -0.13403086   
    242000   0.97578844     0.003456125    0.83028006    -0.13466629   
    243000   0.93166742     0.0040517441   0.78175449    -0.13956106   
    244000   0.93706518     0.0035116742   0.81200473    -0.11464861   
    245000   0.95277348     0.0032051442   0.81513278    -0.12705434   
    246000   0.97580247     0.0031007536   0.84852311    -0.11643711   
    247000   1.097199       0.0057190917   0.95300575    -0.13200219   
    248000   0.97913795     0.0040193719   0.84560577    -0.12265287   
    249000   1.0698765      0.0043921      0.93252859    -0.12546038   
    250000   0.9554744      0.0044321254   0.8292593     -0.11559872   
    251000   0.95117172     0.0037064515   0.82798473    -0.11261842   
    252000   0.948574       0.0036821175   0.82226652    -0.11576777   
    253000   0.99291168     0.0036464334   0.86180461    -0.12007473   
    254000   1.0154123      0.003453938    0.88325302    -0.1208769    
    255000   0.93675671     0.0035483399   0.81509919    -0.1112491    
    256000   0.93093896     0.0028923846   0.79417534    -0.12641986   
    257000   1.0190216      0.0031999348   0.87427317    -0.13342599   
    258000   1.0183006      0.0045649303   0.88526864    -0.12171755   
    259000   1.0286965      0.0044421265   0.87296105    -0.14430544   
    260000   0.92134537     0.0041948044   0.7784487     -0.13265949   
    261000   1.0180998      0.0036954215   0.86969965    -0.13708797   
    262000   0.98360077     0.0049091039   0.83992234    -0.13274953   
    263000   0.94808014     0.0044170685   0.81380953    -0.12373638   
    264000   0.99178863     0.0031765427   0.86139296    -0.1193758    
    265000   1.0533442      0.0034622521   0.91650993    -0.12513043   
    266000   1.0122748      0.0041940792   0.87387832    -0.12714902   
    267000   0.92546471     0.00434942     0.79082535    -0.12435642   
    268000   0.99782682     0.0040234044   0.86427126    -0.12246859   
    269000   0.98205827     0.0041758045   0.83163705    -0.13950946   
    270000   1.0642883      0.0043072919   0.89078372    -0.16167911   
    271000   1.0329471      0.0050843606   0.85695603    -0.16451385   
    272000   0.95893455     0.0035720265   0.7850662     -0.16321351   
    273000   0.98156662     0.0034206528   0.82710224    -0.14355809   
    274000   0.98587756     0.0037253847   0.81148943    -0.16343393   
    275000   0.96683562     0.0038503221   0.80975442    -0.14633858   
    276000   1.0286087      0.0036019332   0.88206498    -0.13511469   
    277000   0.89591326     0.0026091865   0.74074162    -0.14521705   
    278000   1.0148998      0.0039927446   0.85662862    -0.14699449   
    279000   0.95210048     0.0032476259   0.80687511    -0.13464647   
    280000   1.0391741      0.0043403667   0.90875687    -0.1188708    
    281000   1.0501806      0.0053205797   0.90499142    -0.13352049   
    282000   1.0156581      0.00299218     0.88698187    -0.1173911    
    283000   0.90775591     0.0039795147   0.78055732    -0.11711242   
    284000   1.0390647      0.0037638222   0.89135632    -0.13616323   
    285000   1.0268774      0.0036015593   0.88491893    -0.13054876   
    286000   1.0083481      0.003467153    0.85805938    -0.13908487   
    287000   1.0247288      0.0036448306   0.87383484    -0.13950813   
    288000   0.93299531     0.0028373853   0.79581166    -0.12681703   
    289000   0.97914548     0.0036150511   0.84123846    -0.12702762   
    290000   0.99123981     0.003612605    0.86370763    -0.11651841   
    291000   0.94338179     0.0036246723   0.81048187    -0.1224179    
    292000   0.96622725     0.0043623415   0.82988678    -0.12560461   
    293000   0.99810118     0.0048807419   0.84267407    -0.14433709   
    294000   0.96017942     0.0044352058   0.81405943    -0.13545133   
    295000   1.0483948      0.004755746    0.89792865    -0.13881729   
    296000   0.90183406     0.0037708311   0.75325371    -0.13855997   
    297000   1.0075259      0.0038131965   0.8428301     -0.15350104   
    298000   1.0576511      0.0041790204   0.90542775    -0.14047166   
    299000   0.96391857     0.00422818     0.81899856    -0.1342098    
    300000   0.97878592     0.0037462146   0.82806504    -0.13984549   
    301000   1.0200358      0.0040948782   0.87885156    -0.12985049   
    302000   0.99025179     0.0034951882   0.85745842    -0.12179058   
    303000   1.0095499      0.0024905546   0.87052753    -0.12780514   
    304000   0.99546475     0.0048506003   0.85742997    -0.12697406   
    305000   1.0212851      0.00356556     0.88607683    -0.12386063   
    306000   0.99590975     0.0034229219   0.8653613     -0.11948278   
    307000   1.0619072      0.0052083566   0.92473676    -0.12537148   
    308000   1.0016393      0.0041044834   0.87931244    -0.11119751   
    309000   0.92036517     0.0032193339   0.79525242    -0.11488646   
    310000   0.99371534     0.0045700853   0.87365874    -0.10901532   
    311000   0.99748139     0.0035477961   0.90299036    -0.083407904  
    312000   1.0268931      0.0049369324   0.91883101    -0.096652125  
    313000   1.000354       0.0043145057   0.85239759    -0.13684134   
    314000   0.93459502     0.004304198    0.78133621    -0.14287442   
    315000   1.0875705      0.0047831616   0.9487822     -0.12670415   
    316000   0.96117836     0.0048089216   0.84737539    -0.10312322   
    317000   0.95497362     0.0031337858   0.82151678    -0.12284602   
    318000   1.0537344      0.0038599672   0.90793719    -0.13408905   
    319000   1.0531957      0.0041521854   0.91915644    -0.12233704   
    320000   0.98907443     0.004578534    0.83355538    -0.14452934   
    321000   0.90526631     0.0028678599   0.76188512    -0.13332268   
    322000   1.0382693      0.0041268955   0.89234556    -0.13438744   
    323000   1.0569651      0.0033832991   0.90794313    -0.13727793   
    324000   0.95513234     0.0037331151   0.809689      -0.13483076   
    325000   0.99128453     0.0024630806   0.86700225    -0.11326801   
    326000   1.071906       0.0040384682   0.96333799    -0.096657951  
    327000   1.0234508      0.0033881477   0.92533685    -0.086742248  
    328000   1.0073992      0.0043174414   0.9038358     -0.092370112  
    329000   1.0125118      0.0043392523   0.90821402    -0.093047613  
    330000   1.0657155      0.004173013    0.96248225    -0.091391945  
    331000   1.0327255      0.0032924004   0.92703024    -0.094220527  
    332000   1.0534278      0.004178371    0.95337606    -0.088347031  
    333000   0.99829553     0.0030264967   0.90740825    -0.079795105  
    334000   1.0067107      0.0042259968   0.93646414    -0.059060854  
    335000   0.95061065     0.0036539198   0.8471734     -0.0928749    
    336000   1.0259882      0.0048356387   0.92518192    -0.089406446  
    337000   1.0522535      0.0045988536   0.95413742    -0.086424332  
    338000   1.0586702      0.004496493    0.95050687    -0.096400355  
    339000   1.0490692      0.0051337191   0.94604317    -0.091369717  
    340000   1.0171408      0.0041783618   0.91549987    -0.090339345  
    341000   0.9948879      0.0033806926   0.88241563    -0.10141796   
    342000   0.95003995     0.004065057    0.83647089    -0.10301306   
    343000   1.0632407      0.0040670125   0.96387203    -0.087554837  
    344000   1.1237322      0.0030287069   1.0279459     -0.083300363  
    345000   0.94457858     0.0052540608   0.82885272    -0.10523055   
    346000   0.9880303      0.0037077217   0.87554421    -0.10150797   
    347000   1.0823805      0.0041355808   0.95193062    -0.11842344   
    348000   0.97538327     0.0034942736   0.88318043    -0.081365248  
    349000   0.99460317     0.0039307384   0.8820565     -0.10149552   
    350000   0.88972786     0.002866612    0.7800726     -0.099769402  
    351000   0.97995177     0.0039233443   0.86151572    -0.1075477    
    352000   1.0945135      0.0059660466   0.97245251    -0.10989974   
    353000   1.0085595      0.0037813996   0.89242496    -0.10492829   
    354000   0.94053075     0.0035338149   0.82482291    -0.1052575    
    355000   0.98562559     0.0031753141   0.8994692     -0.075204996  
    356000   1.0172272      0.0036731392   0.91837113    -0.0875535    
    357000   1.0053036      0.0042572668   0.9222456     -0.071887955  
    358000   0.95103234     0.0039622479   0.84873336    -0.091731956  
    359000   1.0100118      0.0043804266   0.89029464    -0.10849483   
    360000   0.96511282     0.004761979    0.85005053    -0.10433882   
    361000   1.0655839      0.0036901601   0.9296738     -0.12407026   
    362000   1.0401138      0.003035424    0.90121945    -0.1273375    
    363000   1.011596       0.0036154118   0.88575916    -0.11459692   
    364000   0.94953668     0.0040079381   0.83514414    -0.10384213   
    365000   1.006632       0.0039562224   0.88457406    -0.11087314   
    366000   1.0224271      0.0040524539   0.91862895    -0.092437828  
    367000   1.0254385      0.0036547876   0.91704129    -0.097003412  
    368000   0.95978045     0.0039737113   0.84351828    -0.10559794   
    369000   0.88608876     0.0029299368   0.77296751    -0.10327582   
    370000   0.96642846     0.0046164841   0.85825737    -0.097432999  
    371000   1.0260164      0.0034231461   0.89588078    -0.11873542   
    372000   1.0193626      0.0053440429   0.89236966    -0.11566673   
    373000   0.97227827     0.0030574621   0.8481836     -0.11329157   
    374000   0.98231436     0.0040921031   0.85244264    -0.11895711   
    375000   1.0391895      0.0038017274   0.90275198    -0.12489098   
    376000   0.97481376     0.0027026296   0.84943839    -0.11454411   
    377000   0.94226298     0.0034161648   0.8033822     -0.1284112    
    378000   1.0398267      0.0033616619   0.89735186    -0.13092121   
    379000   0.99613348     0.0046043264   0.85334781    -0.13171753   
    380000   0.9724264      0.0044441479   0.84479974    -0.11682192   
    381000   1.0213194      0.0040690015   0.89749535    -0.11247606   
    382000   1.0158067      0.0040126884   0.89852993    -0.10599      
    383000   1.0524164      0.0033683964   0.93565858    -0.10506429   
    384000   1.0134534      0.0044032655   0.88480694    -0.11738591   
    385000   1.0039398      0.0033924347   0.88251852    -0.11026642   
    386000   1.0588444      0.0048862763   0.94833484    -0.098744647  
    387000   0.95130207     0.0036323904   0.84491805    -0.095813996  
    388000   0.96875914     0.0038126182   0.85755448    -0.10044067   
    389000   1.0006435      0.0035282401   0.87195723    -0.11756796   
    390000   1.0058241      0.00400456     0.86078149    -0.13386674   
    391000   1.0973008      0.0040697127   0.96511888    -0.11998969   
    392000   0.99467133     0.0036840339   0.8900679     -0.093551533  
    393000   1.0309992      0.0052958314   0.92767852    -0.09186512   
    394000   1.0390758      0.0048345694   0.94330395    -0.084226574  
    395000   1.0475978      0.0042239442   0.93293801    -0.10301986   
    396000   0.94358672     0.0040710252   0.82925356    -0.10384886   
    397000   0.98238389     0.0040799915   0.8813959     -0.090072605  
    398000   0.95415798     0.003096715    0.87911623    -0.064439994  
    399000   0.91419169     0.0044517032   0.81010756    -0.093926441  
    400000   1.070818       0.0048328588   0.96746685    -0.091453147  
    401000   1.0381237      0.0034284953   0.92516       -0.10142901   
    402000   0.93750305     0.0034397779   0.82673817    -0.10034817   
    403000   1.0458797      0.0041955408   0.95479087    -0.079467984  
    404000   0.97834463     0.0038806147   0.89307591    -0.074398224  
    405000   1.0432765      0.004511232    0.9614962     -0.070188361  
    406000   1.004915       0.0054913575   0.92269074    -0.071058524  
    407000   1.0068608      0.0046949543   0.89491487    -0.10075861   
    408000   1.0123306      0.0047952057   0.91184909    -0.089233417  
    409000   1.0774232      0.0038587414   0.96879948    -0.096652351  
    410000   0.97713447     0.0042704659   0.87344918    -0.092828246  
    411000   0.94270939     0.0037366131   0.86147888    -0.070755962  
    412000   1.0143243      0.003372528    0.90659719    -0.096456881  
    413000   1.0478485      0.0032150336   0.94368452    -0.092521226  
    414000   0.97185851     0.003840357    0.86142346    -0.099636617  
    415000   0.98180239     0.0039135171   0.87436862    -0.096524854  
    416000   1.046708       0.0044584419   0.93250262    -0.10257526   
    417000   0.94468866     0.0047105758   0.81582076    -0.11837136   
    418000   1.0266271      0.0031267606   0.90552172    -0.10969838   
    419000   0.89729099     0.0037826858   0.78385529    -0.10346581   
    420000   0.97465631     0.004022408    0.87406656    -0.089760233  
    421000   1.077528       0.0033697455   0.96606091    -0.099494608  
    422000   1.0167909      0.0046991686   0.91408633    -0.091406883  
    423000   0.982065       0.0036649652   0.88841327    -0.082739889  
    424000   1.0029148      0.0035912985   0.88338258    -0.10838873   
    425000   1.0252877      0.0037989506   0.90341648    -0.1104791    
    426000   0.99659629     0.0029669215   0.87686709    -0.10865591   
    427000   0.94994296     0.0034604084   0.81051682    -0.12887122   
    428000   1.0499141      0.004139606    0.90238559    -0.13586284   
    429000   0.92698688     0.0034269974   0.78551621    -0.13117081   
    430000   0.97934231     0.0032380427   0.81567491    -0.15278582   
    431000   0.95429575     0.0039641221   0.81562547    -0.128067     
    432000   1.0332885      0.0043847991   0.91641619    -0.10539128   
    433000   0.91121217     0.0044199702   0.78929623    -0.11179136   
    434000   0.96199301     0.0042014224   0.83092483    -0.12037937   
    435000   1.04726        0.0036835064   0.91037262    -0.12525119   
    436000   0.98858704     0.004308016    0.85734       -0.12026273   
    437000   1.0550768      0.0048340421   0.90175488    -0.1415988    
    438000   0.92007759     0.0028807424   0.79791169    -0.11194281   
    439000   1.0401156      0.0036153767   0.93747141    -0.09108734   
    440000   1.017923       0.0030735528   0.88717547    -0.11943726   
    441000   0.99525454     0.0040154159   0.87851713    -0.10567902   
    442000   0.97896465     0.0043092107   0.86440163    -0.10368563   
    443000   1.0906847      0.0053647682   0.97326029    -0.10530569   
    444000   0.95940996     0.004675728    0.86166648    -0.087083373  
    445000   1.0148551      0.004206424    0.89229054    -0.11128842   
    446000   0.98676583     0.004471227    0.86830581    -0.10749595   
    447000   1.0558134      0.0037910586   0.94309094    -0.10099124   
    448000   0.9291674      0.0043153807   0.80256309    -0.11628023   
    449000   0.92043924     0.0028525102   0.77987059    -0.13034155   
    450000   0.97250972     0.0047067799   0.82437559    -0.13732847   
    451000   0.9249901      0.0038194247   0.77521058    -0.13950186   
    452000   1.0521654      0.0053087822   0.8942438     -0.14623087   
    453000   1.0290529      0.0039509046   0.90025896    -0.11736007   
    454000   1.0203375      0.0047328969   0.871435      -0.13756546   
    455000   0.98779547     0.0037288396   0.84254543    -0.13427454   
    456000   0.98253298     0.002383717    0.83839589    -0.13322006   
    457000   1.0869701      0.0040313249   0.94851359    -0.12637904   
    458000   1.0300151      0.004313453    0.88245225    -0.13611822   
    459000   0.9677159      0.003663287    0.85377414    -0.10318937   
    460000   0.95502468     0.0039941356   0.84668062    -0.097732678  
    461000   1.0777113      0.0046704171   0.94519024    -0.12054652   
    462000   0.96087909     0.0041738783   0.82769369    -0.12250896   
    463000   0.98256767     0.0035776625   0.86140283    -0.11024743   
    464000   0.9323169      0.0034903538   0.79092509    -0.13103273   
    465000   0.98930324     0.0034194368   0.85958956    -0.11872142   
    466000   0.94557627     0.0038145044   0.80907798    -0.12599188   
    467000   0.96865719     0.0042442082   0.81076631    -0.14712802   
    468000   1.0168875      0.0039172049   0.85406443    -0.15152435   
    469000   1.0511751      0.0035698848   0.87305251    -0.16644291   
    470000   0.95931176     0.0033192217   0.77852144    -0.1701313    
    471000   0.94588845     0.0041845437   0.76710388    -0.16827471   
    472000   1.018503       0.0038831331   0.86269644    -0.14448987   
    473000   1.0352262      0.0048724898   0.87314906    -0.15057462   
    474000   1.0366614      0.0048088434   0.8957768     -0.12936612   
    475000   1.0187256      0.0042091552   0.86971921    -0.13768724   
    476000   0.98651738     0.0030586543   0.83161593    -0.14394015   
    477000   1.0621453      0.0041101056   0.91076958    -0.13957415   
    478000   0.92422965     0.0045860346   0.79091839    -0.12304204   
    479000   1.0092953      0.0045136385   0.88478009    -0.11330077   
    480000   0.99883912     0.0039972478   0.86829731    -0.1194436    
    481000   1.0204866      0.0048953607   0.90133305    -0.10781477   
    482000   1.119844       0.0053286563   0.99521481    -0.11218651   
    483000   0.96950264     0.0042678455   0.83474189    -0.12398851   
    484000   0.99254042     0.0033338998   0.84244333    -0.13906887   
    485000   1.0098353      0.0033111043   0.8642359     -0.13437903   
    486000   0.97625229     0.0040737083   0.83328882    -0.13211622   
    487000   0.98778401     0.0039225705   0.85378755    -0.12302108   
    488000   0.97446825     0.0043465946   0.82840207    -0.13523876   
    489000   0.97988847     0.0045489664   0.82654721    -0.14245361   
    490000   1.0711126      0.0046424234   0.9114418     -0.14776951   
    491000   0.99815801     0.003809681    0.82037047    -0.1666969    
    492000   1.0155341      0.0041384189   0.82103454    -0.18321582   
    493000   1.0077593      0.0035690656   0.80115787    -0.19540408   
    494000   1.0181917      0.0039084063   0.82440557    -0.18247288   
    495000   0.95632703     0.0051064162   0.77722728    -0.16847389   
    496000   0.93288772     0.0029692461   0.75932106    -0.16320124   
    497000   1.0368013      0.0048668603   0.85621582    -0.1690655    
    498000   0.98742991     0.0039919655   0.80409271    -0.17236576   
    499000   1.0444861      0.0042917346   0.88133716    -0.15154355   
    500000   0.98744242     0.0040391627   0.83859636    -0.13787448   
    501000   1.0447987      0.0036289556   0.90990964    -0.12328022   
    502000   1.0220378      0.0032465192   0.88987739    -0.12080443   
    503000   0.98705873     0.0043924546   0.85248921    -0.1236022    
    504000   0.99377786     0.0047654453   0.87548466    -0.10725123   
    505000   0.94214481     0.0025620383   0.78606541    -0.14561112   
    506000   1.0003033      0.0039932926   0.84660304    -0.14258581   
    507000   1.0236591      0.0047736885   0.89033771    -0.12194736   
    508000   0.96806165     0.0037782445   0.80558404    -0.15172137   
    509000   1.0319957      0.004157753    0.87479075    -0.14573834   
    510000   1.0120132      0.0036616869   0.85671676    -0.14405189   
    511000   0.99326772     0.0039661214   0.85562726    -0.12660416   
    512000   1.0677872      0.0055277618   0.90986541    -0.14605751   
    513000   1.0564732      0.003908258    0.90538104    -0.13935356   
    514000   1.0660803      0.0043358101   0.90139177    -0.15284322   
    515000   0.99463165     0.0045295399   0.83718953    -0.14639066   
    516000   1.0337266      0.0038124547   0.89611225    -0.12612853   
    517000   1.0456764      0.0040410658   0.89063399    -0.14342378   
    518000   0.99538209     0.0032821466   0.84211135    -0.14221094   
    519000   0.95328511     0.0040617388   0.82686885    -0.11582421   
    520000   1.087006       0.0050937934   0.9513841     -0.1235441    
    521000   0.91644515     0.00456777     0.76078829    -0.14547414   
    522000   0.94117038     0.0037342996   0.78035324    -0.15035969   
    523000   1.0465829      0.0043564482   0.90330127    -0.13165291   
    524000   1.082529       0.0036845068   0.92946511    -0.14103576   
    525000   0.96452197     0.003097945    0.81431092    -0.13949414   
    526000   0.97577604     0.0036813      0.83706835    -0.12786574   
    527000   1.028206       0.0036987412   0.88913082    -0.12765068   
    528000   0.99139335     0.0047474066   0.83755936    -0.14281851   
    529000   0.94228356     0.0036943998   0.78414665    -0.14766709   
    530000   0.95614133     0.0038715443   0.79994305    -0.14557449   
    531000   1.0246379      0.0044246391   0.85973641    -0.15351661   
    532000   0.96833048     0.0039041938   0.80384042    -0.15373083   
    533000   1.0174297      0.0033812297   0.87658325    -0.12954168   
    534000   0.93850036     0.0044770468   0.79325323    -0.13481935   
    535000   1.0591319      0.0043709607   0.9122287     -0.13513502   
    536000   0.98290606     0.0038653211   0.82257683    -0.14940805   
    537000   1.0161023      0.004856028    0.85542682    -0.14938542   
    538000   1.0123404      0.003382919    0.86810514    -0.13298703   
    539000   0.9841447      0.0027720285   0.82694455    -0.1462652    
    540000   1.0216208      0.0038083081   0.86659948    -0.14366997   
    541000   1.0428767      0.0043513218   0.89351089    -0.13777828   
    542000   1.003831       0.0047146069   0.8373141     -0.1553632    
    543000   1.0488618      0.0042261781   0.8717585     -0.16544932   
    544000   1.0223827      0.0032838945   0.85201752    -0.15900534   
    545000   0.99572656     0.0033816952   0.84069165    -0.14397128   
    546000   0.99058674     0.0036517138   0.82034677    -0.15923345   
    547000   1.0183698      0.0036603574   0.86846857    -0.13858596   
    548000   1.0888292      0.0040412367   0.93038743    -0.14634366   
    549000   0.99823254     0.0039610264   0.84848091    -0.13866015   
    550000   1.1262209      0.0057889384   0.99578064    -0.11792672   
    551000   0.94011826     0.003742978    0.79085188    -0.13882062   
    552000   0.92605586     0.0036739975   0.7710208     -0.14474555   
    553000   1.0504409      0.0034743244   0.90574293    -0.13302637   
    554000   0.99434476     0.0027914501   0.86225441    -0.12104207   
    555000   1.0042909      0.003416075    0.84557211    -0.14755998   
    556000   1.017261       0.005049236    0.8539856     -0.15197249   
    557000   1.0915259      0.0049026882   0.93115137    -0.14824643   
    558000   0.97748877     0.0038936025   0.80831189    -0.15831589   
    559000   1.023478       0.0049708997   0.85466822    -0.15743776   
    560000   1.0264417      0.0032630637   0.87635905    -0.13867774   
    561000   1.036332       0.0045634994   0.86172403    -0.16309318   
    562000   0.98366251     0.0028440852   0.8310449     -0.14168802   
    563000   0.99977456     0.0039351495   0.85194323    -0.13672272   
    564000   1.0517546      0.0045705265   0.90842213    -0.1316463    
    565000   0.99248425     0.0033617692   0.88955682    -0.091899835  
    566000   1.0310584      0.0040512591   0.91186222    -0.10774001   
    567000   0.9494747      0.0049059028   0.82185492    -0.11707007   
    568000   0.98691955     0.003315145    0.84800355    -0.12795023   
    569000   0.99586747     0.0030058883   0.85428       -0.13052227   
    570000   1.0160652      0.004221033    0.86665758    -0.138118     
    571000   1.0162201      0.0041294729   0.86901816    -0.13591063   
    572000   1.0032193      0.0031864529   0.85949224    -0.1325802    
    573000   1.0267637      0.0026109408   0.87215755    -0.14319769   
    574000   1.0435496      0.0059200493   0.8734934     -0.15846116   
    575000   1.0959561      0.004561464    0.91757708    -0.16620174   
    576000   1.0214177      0.0042195079   0.8234534     -0.18661524   
    577000   1.0526519      0.0037973265   0.84997758    -0.19097817   
    578000   0.96387517     0.0030783812   0.77933911    -0.17382633   
    579000   0.93589542     0.0034599743   0.73165175    -0.19384484   
    580000   0.86145902     0.00320814     0.67292641    -0.17896085   
    581000   0.99949342     0.004432858    0.81366399    -0.17472395   
    582000   1.0973995      0.0036610582   0.89388763    -0.19131857   
    583000   1.0533502      0.0030968177   0.87531729    -0.16632901   
    584000   0.96936973     0.0040026879   0.81212853    -0.14647043   
    585000   0.86139109     0.0045979435   0.6690619     -0.18275818   
    586000   1.0165311      0.0043331395   0.84225942    -0.16297687   
    587000   1.0855079      0.0035847164   0.89243953    -0.18100719   
    588000   1.0411286      0.0031999478   0.84686078    -0.18269975   
    589000   1.1108393      0.0047231709   0.92150295    -0.17699372   
    590000   0.98891583     0.0042139354   0.79627075    -0.18165713   
    591000   1.1007312      0.0048545254   0.94934354    -0.13915736   
    592000   0.85797714     0.0036675667   0.68970477    -0.1587393    
    593000   1.0429566      0.0034029861   0.86592614    -0.16544208   
    594000   0.98246549     0.0041094474   0.79958317    -0.17196604   
    595000   0.95032852     0.0048703715   0.76459408    -0.17517523   
    596000   1.0150072      0.004139071    0.83939632    -0.16433305   
    597000   1.0499797      0.0038803311   0.8935499     -0.14476336   
    598000   1.0056192      0.0035772535   0.87095951    -0.1234861    
    599000   0.98990876     0.0032544078   0.82160831    -0.15730146   
    600000   1.1221891      0.0044817352   0.94777829    -0.16194202   
    601000   1.0232709      0.0039917085   0.85830609    -0.15359517   
    602000   0.99981265     0.0043117814   0.82704908    -0.16165454   
    603000   0.94519318     0.003002834    0.76559429    -0.16909675   
    604000   0.90772875     0.0033417174   0.71769286    -0.17995002   
    605000   0.97608916     0.0038751712   0.76786235    -0.19738138   
    606000   1.0427483      0.0030511815   0.83657989    -0.19458229   
    607000   1.004728       0.0025399292   0.80684148    -0.18672287   
    608000   1.0239999      0.0031768409   0.83793205    -0.17469007   
    609000   0.96715939     0.0039378059   0.79528577    -0.1611274    
    610000   0.98218751     0.0034387083   0.8002593     -0.17101502   
    611000   0.92580978     0.0041528187   0.75593412    -0.15958889   
    612000   0.99359567     0.0035487562   0.82482159    -0.15773413   
    613000   1.0167567      0.0040810711   0.85001202    -0.15544742   
    614000   1.0405913      0.0039837802   0.88657873    -0.14245044   
    615000   1.0343956      0.0040460128   0.86598075    -0.15692153   
    616000   1.0573603      0.004514963    0.89011473    -0.1554971    
    617000   0.91323716     0.0030874172   0.76946521    -0.13362487   
    618000   1.0115373      0.0041411087   0.87420606    -0.12609189   
    619000   1.0616898      0.0042221483   0.94166764    -0.1082256    
    620000   0.97931636     0.004298558    0.85760327    -0.1108318    
    621000   0.9469006      0.0030870992   0.83981974    -0.096559746  
    622000   0.89659546     0.0034202757   0.7832076     -0.10342569   
    623000   0.91559465     0.003078709    0.80027612    -0.10514526   
    624000   1.0173333      0.0028263741   0.89377442    -0.11225514   
    625000   1.0044285      0.0039621437   0.88172322    -0.11154492   
    626000   0.99826196     0.0032107439   0.8913272     -0.095842954  
    627000   1.0691036      0.0045489025   0.96816677    -0.089057949  
    628000   1.0364439      0.0049434682   0.94765327    -0.077274619  
    629000   0.95438072     0.0037025883   0.85273418    -0.091042308  
    630000   1.0352129      0.0034260485   0.9449047     -0.078805848  
    631000   0.95653712     0.0030764234   0.86605527    -0.079853654  
    632000   1.0171577      0.0034750249   0.94487943    -0.060976547  
    633000   1.0332579      0.0043979582   0.94022956    -0.08154769   
    634000   1.0383668      0.0044076636   0.96234243    -0.064486993  
    635000   1.0272801      0.0035980016   0.94000855    -0.075857317  
    636000   0.98881637     0.0038467531   0.89339757    -0.084431949  
    637000   1.0312588      0.0043928927   0.93817451    -0.081625829  
    638000   1.0319076      0.0040348677   0.94313166    -0.077310348  
    639000   0.98736359     0.0042477695   0.88770824    -0.088684643  
    640000   0.97188564     0.0046351262   0.86693232    -0.094154588  
    641000   1.0679693      0.0045634988   0.95805211    -0.098050887  
    642000   0.91073899     0.0040024873   0.77972153    -0.12089814   
    643000   0.99063889     0.003498816    0.86551302    -0.11411877   
    644000   0.94123095     0.0030615838   0.8150618     -0.11571103   
    645000   0.9900393      0.0041545926   0.86270404    -0.11633482   
    646000   0.97985088     0.0039557946   0.85452832    -0.11443533   
    647000   1.0257095      0.0055472564   0.89233617    -0.12197655   
    648000   1.0131088      0.0041679702   0.89949316    -0.10235889   
    649000   0.98423375     0.0036167094   0.87660379    -0.096694036  
    650000   1.0181854      0.0045539169   0.90242609    -0.10444616   
    651000   0.92582833     0.0026787377   0.79590559    -0.11963576   
    652000   1.0646391      0.003746225    0.95092099    -0.10188881   
    653000   1.0283746      0.0050881231   0.89389864    -0.12304957   
    654000   1.0653059      0.004013752    0.92104173    -0.1324274    
    655000   0.99828864     0.0046762585   0.8586997     -0.12849684   
    656000   1.0330765      0.0052818557   0.89192303    -0.12967484   
    657000   1.022777       0.0028548593   0.89604978    -0.11536304   
    658000   0.95177313     0.0027719147   0.81479026    -0.12640762   
    659000   1.1333661      0.004913264    0.99019429    -0.13057882   
    660000   1.0613284      0.0049770556   0.94173401    -0.10780186   
    661000   1.1073108      0.0055945562   0.96825051    -0.12675679   
    662000   1.0150979      0.0039447245   0.89676048    -0.10705853   
    663000   1.0521927      0.0052294884   0.9261653     -0.11433639   
    664000   0.90222572     0.0034441418   0.77513535    -0.11706564   
    665000   0.98588477     0.0037606846   0.8503207     -0.12460979   
    666000   0.9861354      0.0038407649   0.86777905    -0.10739928   
    667000   0.98914472     0.0034860008   0.86929438    -0.10885984   
    668000   0.97289378     0.0039039908   0.84138172    -0.12070213   
    669000   1.1226405      0.0037672871   0.96249409    -0.14767262   
    670000   1.0678872      0.0031702157   0.93047778    -0.12554403   
    671000   1.0114366      0.0025994976   0.86120026    -0.13899818   
    672000   0.96221777     0.0044612014   0.82281282    -0.12871364   
    673000   0.92644253     0.0043385279   0.80671212    -0.10943661   
    674000   1.0329518      0.0036946281   0.91336972    -0.10810488   
    675000   1.058518       0.0034538749   0.92579614    -0.12096051   
    676000   1.0419983      0.004348202    0.93021272    -0.10020779   
    677000   0.93617636     0.0035319042   0.81604975    -0.10972465   
    678000   1.0194139      0.0047303919   0.8924625     -0.11562453   
    679000   0.97188912     0.0031874351   0.82972294    -0.13136741   
    680000   0.99778268     0.005491152    0.84524621    -0.14145      
    681000   1.0008695      0.0045091053   0.84240146    -0.14734723   
    682000   0.93970557     0.0034741728   0.78374941    -0.14551499   
    683000   1.0411182      0.0035118741   0.8743451     -0.15520511   
    684000   0.95637005     0.0041152669   0.77488531    -0.1708584    
    685000   1.0297055      0.0046220591   0.8901562     -0.12810817   
    686000   1.0936795      0.0047945044   0.93430583    -0.14722167   
    687000   1.0034296      0.0041494643   0.83456224    -0.15771815   
    688000   0.99164034     0.0041848862   0.82602585    -0.15459626   
    689000   1.0734867      0.0031705779   0.91273196    -0.14882713   
    690000   0.99764839     0.0049116459   0.82923092    -0.15733248   
    691000   0.95327956     0.0036792493   0.7972202     -0.14546736   
    692000   0.95296381     0.0044777888   0.81311511    -0.12926021   
    693000   0.89827981     0.0037372152   0.76445235    -0.12384658   
    694000   1.01427        0.0033658315   0.86979598    -0.13320436   
    695000   0.97656832     0.0038957778   0.85021665    -0.11550091   
    696000   1.0611778      0.0036920015   0.93855221    -0.11083477   
    697000   1.0089851      0.0048679128   0.88649013    -0.11128401   
    698000   0.99368583     0.0049751875   0.8635616     -0.11908327   
    699000   1.0945434      0.0039795243   0.97161418    -0.11076763   
    700000   1.00077        0.0044109299   0.87559195    -0.11405835   
    701000   1.0074817      0.0037136469   0.88632363    -0.10996384   
    702000   0.99308242     0.0049695165   0.87289264    -0.10915553   
    703000   1.0330402      0.0036659629   0.8968249     -0.12473711   
    704000   1.0036715      0.0045203286   0.87036032    -0.12215933   
    705000   0.97166116     0.0044959339   0.8341504     -0.12671453   
    706000   1.0040132      0.0038016249   0.88946702    -0.10339045   
    707000   1.074717       0.0033891641   0.94836495    -0.11441078   
    708000   1.0093942      0.0043007264   0.85133763    -0.14684105   
    709000   1.0620082      0.0044871589   0.91793275    -0.13227537   
    710000   1.0084677      0.0030853624   0.83954844    -0.15771407   
    711000   0.97488704     0.0047033344   0.82981446    -0.1342405    
    712000   0.93794322     0.0029302323   0.79066285    -0.13685878   
    713000   1.0425055      0.0042889575   0.91251024    -0.11841191   
    714000   1.0092477      0.0039780586   0.87389354    -0.12414027   
    715000   1.0137059      0.004379407    0.85703646    -0.14540606   
    716000   0.99081562     0.0040818956   0.83659074    -0.14321582   
    717000   0.92923925     0.0032239426   0.76933108    -0.1495833    
    718000   0.9379066      0.003817824    0.79935422    -0.12813119   
    719000   0.98327658     0.0042493375   0.84143287    -0.13091842   
    720000   1.0653512      0.0046232332   0.90072451    -0.15278944   
    721000   1.0894178      0.0040072908   0.95184354    -0.12546963   
    722000   0.90115686     0.002730099    0.75547293    -0.13567108   
    723000   0.99815386     0.003602633    0.85262174    -0.13444152   
    724000   0.94441981     0.0043619404   0.78089988    -0.15302637   
    725000   0.99827375     0.0034776266   0.84152317    -0.14565865   
    726000   1.0171247      0.0046055152   0.86938089    -0.13644242   
    727000   1.0169638      0.0039760879   0.8578276     -0.14783658   
    728000   1.0209497      0.0047575311   0.88442793    -0.12517788   
    729000   1.0557648      0.0051744055   0.89370299    -0.15033108   
    730000   1.0692809      0.0051836464   0.91485719    -0.14254277   
    731000   1.0259766      0.0046643015   0.87264952    -0.14192735   
    732000   0.9173939      0.0024690669   0.74085855    -0.16634209   
    733000   1.025267       0.0038342598   0.84301848    -0.17085667   
    734000   0.95508601     0.0029337464   0.77340608    -0.17106786   
    735000   1.0104277      0.0037208903   0.81123077    -0.18797      
    736000   1.0769134      0.0043384891   0.8855051     -0.17944255   
    737000   1.0003446      0.003970119    0.83173225    -0.15749745   
    738000   0.94747786     0.004602499    0.75667727    -0.18027305   
    739000   1.0839768      0.0048204169   0.89722709    -0.17470548   
    740000   0.99654326     0.0031838902   0.82145926    -0.1640113    
    741000   0.97955156     0.004989489    0.80240346    -0.16626419   
    742000   0.98301682     0.0036158966   0.79389695    -0.17819745   
    743000   1.0040143      0.0041690502   0.83296705    -0.15989157   
    744000   0.91954517     0.0033218425   0.7428023     -0.1665257    
    745000   0.9800296      0.004498721    0.79635242    -0.17278796   
    746000   1.0253966      0.0038463897   0.85352682    -0.16047648   
    747000   0.95876341     0.0031156038   0.7927798     -0.15533068   
    748000   0.88527833     0.0031812162   0.74123553    -0.13420638   
    749000   1.0395479      0.0044284935   0.88418195    -0.14381545   
    750000   1.0353214      0.0043993662   0.84777601    -0.17604182   
    751000   0.97673256     0.0040572982   0.80111999    -0.16475999   
    752000   1.0366978      0.0038899517   0.83328265    -0.19189632   
    753000   1.0464759      0.0039133397   0.88254147    -0.15230688   
    754000   0.97692221     0.0036310097   0.7919255     -0.17414202   
    755000   0.93429088     0.0034626161   0.77514546    -0.14876441   
    756000   0.96645848     0.0040440063   0.7877582     -0.16796185   
    757000   1.065988       0.0045639034   0.87122642    -0.18291724   
    758000   0.96032989     0.0051285272   0.77742395    -0.17223561   
    759000   0.99994739     0.0035529455   0.84124085    -0.14759601   
    760000   1.0306474      0.0045484213   0.89369212    -0.12550363   
    761000   1.0235207      0.0038822426   0.87913671    -0.13301157   
    762000   0.99475308     0.004347398    0.84151933    -0.14218094   
    763000   1.0598283      0.0034840444   0.91909831    -0.12895409   
    764000   0.96097341     0.0034532029   0.82284185    -0.12745408   
    765000   0.96660178     0.0046418832   0.82217494    -0.13368682   
    766000   1.0238065      0.0028366021   0.88585963    -0.12657129   
    767000   0.93750545     0.003406997    0.82261821    -0.10447051   
    768000   1.0428012      0.004058766    0.91698959    -0.11422497   
    769000   1.0225062      0.0046444348   0.89901446    -0.11213055   
    770000   0.88676495     0.0034940559   0.7444582     -0.13245381   
    771000   1.0174235      0.0043102568   0.90361459    -0.1025042    
    772000   0.97567546     0.0034055702   0.8484415     -0.11639312   
    773000   1.0553651      0.0036552103   0.9312804     -0.1123584    
    774000   1.0037629      0.0048220056   0.89410452    -0.098505461  
    775000   1.1331545      0.0056180293   1.0208791     -0.099684769  
    776000   0.95926905     0.0043034176   0.86132688    -0.087283623  
    777000   0.96072565     0.0039256623   0.85918355    -0.090867377  
    778000   1.0082385      0.0049093219   0.91138242    -0.085653423  
    779000   0.98886278     0.0044180992   0.88601154    -0.091863874  
    780000   1.0060682      0.0038006961   0.89142684    -0.1034628    
    781000   0.96194004     0.0043885434   0.85218702    -0.099064799  
    782000   1.0566625      0.0031175737   0.93455239    -0.11036945   
    783000   0.92232551     0.0037418548   0.77890493    -0.13317252   
    784000   0.95197446     0.0042466711   0.82310587    -0.1182911    
    785000   0.98038201     0.0033080741   0.87066978    -0.098819101  
    786000   0.97290563     0.0026706124   0.88169006    -0.080405499  
    787000   0.99414393     0.0042523885   0.87078535    -0.11231253   
    788000   1.0515552      0.0049434236   0.93403942    -0.10583184   
    789000   1.0441298      0.0045909783   0.9411834     -0.091344914  
    790000   1.1430293      0.0043992842   1.0505422     -0.079786791  
    791000   1.028283       0.0037147667   0.93548346    -0.081374155  
    792000   1.0567401      0.0038021454   0.96810405    -0.076894498  
    793000   0.94793439     0.0041532352   0.86638986    -0.071011922  
    794000   0.97428373     0.0043516779   0.89839341    -0.065064946  
    795000   0.9516118      0.0030724801   0.8823372     -0.058701134  
    796000   1.0697246      0.0047015659   0.9768812     -0.080957518  
    797000   1.0081203      0.0043083679   0.90058144    -0.09633752   
    798000   1.0993403      0.0041523922   0.98485627    -0.10226916   
    799000   1.0164397      0.0038580542   0.91677327    -0.088372653  
    800000   1.005923       0.003488665    0.90049212    -0.094253938  
    801000   0.97973873     0.0035220689   0.89381681    -0.075035939  
    802000   1.061076       0.0032270682   0.97730802    -0.071978271  
    803000   0.93679536     0.0043399281   0.86006501    -0.066321511  
    804000   0.98132299     0.0044597174   0.89932182    -0.071097587  
    805000   1.0902549      0.0050072211   1.0146919     -0.063449063  
    806000   1.0205018      0.0047707432   0.95383034    -0.055332508  
    807000   1.0570114      0.003978522    0.97976644    -0.065500434  
    808000   1.0754129      0.004769392    0.99057552    -0.072888338  
    809000   1.0917615      0.0053757743   0.99074382    -0.088886958  
    810000   1.0476764      0.0040318343   0.93257923    -0.10345629   
    811000   0.94263754     0.0034031792   0.84355364    -0.088610148  
    812000   0.98366294     0.0040219839   0.88517368    -0.087559673  
    813000   1.0418267      0.004138368    0.92812845    -0.1021224    
    814000   0.97135965     0.0041221943   0.87012504    -0.090441726  
    815000   1.0544963      0.0040844018   0.96162548    -0.081154143  
    816000   1.0776932      0.0037058669   0.99144432    -0.074274473  
    817000   0.87292939     0.0042685136   0.78277453    -0.080455645  
    818000   0.91746101     0.0030839861   0.83133664    -0.075930353  
    819000   1.0415552      0.0050664768   0.93896778    -0.091014591  
    820000   1.0327222      0.0038425787   0.9498839     -0.071363568  
    821000   0.96229033     0.0038934218   0.87402927    -0.077568951  
    822000   1.0085225      0.0039456091   0.92457225    -0.072744467  
    823000   1.0495937      0.0044352192   0.95645144    -0.081480062  
    824000   0.89466287     0.0029625837   0.81282762    -0.071894557  
    825000   1.0526319      0.0045744957   0.95914277    -0.081793242  
    826000   1.0243992      0.0043250678   0.95693513    -0.056081832  
    827000   0.90878864     0.0037505923   0.82817678    -0.070514212  
    828000   1.00521        0.0037590514   0.91425836    -0.079782646  
    829000   1.0187456      0.0041359173   0.9204935     -0.086932708  
    830000   0.96534764     0.0037921649   0.86052631    -0.09409524   
    831000   0.91622912     0.0034593055   0.80853786    -0.09751094   
    832000   0.95864523     0.0036417787   0.85069182    -0.097301797  
    833000   1.0387114      0.003599409    0.92396423    -0.10320589   
    834000   1.0249068      0.0038368712   0.91637446    -0.097144453  
    835000   0.92914576     0.003678626    0.8352054     -0.083616523  
    836000   0.98858928     0.0052141922   0.88289581    -0.094709141  
    837000   1.0250057      0.0035653077   0.90982612    -0.10379058   
    838000   0.99716109     0.0042037095   0.91145255    -0.074628973  
    839000   1.0497278      0.0031275691   0.97309744    -0.064966726  
    840000   1.0146123      0.0032609407   0.92846955    -0.074869273  
    841000   0.96740969     0.0039227504   0.893083      -0.063577689  
    842000   1.0336877      0.0045843251   0.95006594    -0.072136302  
    843000   1.0712599      0.0035760043   0.97897801    -0.080379004  
    844000   0.9842832      0.0034799276   0.88867419    -0.084672527  
    845000   0.95834551     0.0032169855   0.85467651    -0.093020717  
    846000   1.0283926      0.0032609677   0.92899742    -0.087968561  
    847000   0.97028089     0.0034243067   0.87217192    -0.087328068  
    848000   1.026335       0.0041005664   0.9282487     -0.086682598  
    849000   0.97731222     0.0051772956   0.88755624    -0.07889696   
    850000   1.0536569      0.0049788671   0.95852256    -0.08342708   
    851000   0.96295865     0.0038916512   0.87041692    -0.081842193  
    852000   0.92996784     0.002876625    0.83338646    -0.086248413  
    853000   0.95277466     0.0036969797   0.86753954    -0.074648734  
    854000   0.9878912      0.0034486626   0.89728742    -0.079627208  
    855000   0.85042581     0.0029849417   0.75131052    -0.089666118  
    856000   1.0360886      0.0029361448   0.91517116    -0.10940535   
    857000   1.0240659      0.0048943449   0.91219022    -0.10049719   
    858000   1.0233694      0.0041742749   0.90922383    -0.10277482   
    859000   1.0235681      0.0042025036   0.91287134    -0.099323804  
    860000   0.99329557     0.0031137213   0.8928877     -0.089371258  
    861000   1.0024334      0.0047601674   0.90495186    -0.086343377  
    862000   1.0130879      0.0040311599   0.91468786    -0.087143483  
    863000   1.1052784      0.0044606366   0.99224481    -0.10075274   
    864000   1.0044125      0.0040049412   0.89949715    -0.09375521   
    865000   1.0323274      0.0033291666   0.90500037    -0.11585672   
    866000   1.0255065      0.0038412905   0.88871517    -0.12539685   
    867000   0.97760641     0.0035312814   0.84933911    -0.11740501   
    868000   0.9738422      0.0040376237   0.84421495    -0.11880678   
    869000   1.0087073      0.0030752466   0.89430096    -0.10319851   
    870000   1.0068953      0.0032864446   0.87555249    -0.12015507   
    871000   1.0499959      0.0033236044   0.91345084    -0.12487845   
    872000   0.94593914     0.0040140184   0.80406249    -0.13136621   
    873000   1.0492739      0.0045360458   0.91790074    -0.11971461   
    874000   1.0054889      0.0047690026   0.88304143    -0.11127539   
    875000   0.92078597     0.0050575299   0.79188351    -0.11867151   
    876000   0.99095064     0.0030022547   0.86825093    -0.11168915   
    877000   1.0583222      0.0039194088   0.91793565    -0.12862738   
    878000   1.0143835      0.0039995967   0.88465354    -0.11845903   
    879000   0.98550007     0.002841046    0.86445935    -0.11009071   
    880000   0.97254436     0.0043552336   0.84515523    -0.11658309   
    881000   0.97303525     0.0034881171   0.85529916    -0.10692458   
    882000   0.97539786     0.0038768242   0.85251188    -0.11204823   
    883000   0.99887873     0.0041594324   0.86615413    -0.12162594   
    884000   1.0292483      0.0037407015   0.90598342    -0.1118288    
    885000   1.069406       0.0044258798   0.9443708     -0.11315296   
    886000   0.98078101     0.0036897764   0.84032636    -0.12955708   
    887000   1.0848798      0.0036172549   0.95581288    -0.11701266   
    888000   0.98331802     0.0045975288   0.85712052    -0.11527175   
    889000   1.0976266      0.0048165035   0.9797126     -0.10571817   
    890000   0.92718043     0.0026511081   0.78767713    -0.1292013    
    891000   0.93582883     0.002559603    0.81735958    -0.10807115   
    892000   1.0188071      0.0047105184   0.88774775    -0.11973925   
    893000   0.99232342     0.0032499974   0.85645963    -0.12483797   
    894000   0.97428158     0.0037742911   0.85298139    -0.11047484   
    895000   0.88733357     0.0036604479   0.75522505    -0.12224925   
    896000   1.0932057      0.0050246075   0.9581731     -0.12288588   
    897000   0.99169785     0.0040229816   0.8538822     -0.12679678   
    898000   1.0020203      0.0048121362   0.90030298    -0.090583734  
    899000   0.84093532     0.0036800432   0.71945638    -0.11213521   
    900000   1.0201029      0.0045368686   0.88347416    -0.12529424   
    901000   0.99243222     0.0044870045   0.85264447    -0.12876072   
    902000   0.9337741      0.0037116894   0.80071795    -0.12268088   
    903000   0.97926174     0.0037424506   0.85189563    -0.11648542   
    904000   0.99954246     0.0043004949   0.83901771    -0.14941873   
    905000   0.90660987     0.0037847794   0.76299618    -0.13354025   
    906000   1.0080628      0.0041741042   0.85386291    -0.14299922   
    907000   0.99573401     0.0038885466   0.8684689     -0.1162014    
    908000   1.0644881      0.0043603354   0.89672331    -0.15593711   
    909000   0.98691281     0.0046934376   0.82591439    -0.15003273   
    910000   1.0225831      0.0051653691   0.8769085     -0.13431256   
    911000   1.0680452      0.0039158894   0.92849299    -0.12768501   
    912000   1.1220572      0.0046713323   0.99200093    -0.11758901   
    913000   1.0301303      0.0037556171   0.8874017     -0.13128271   
    914000   1.0811594      0.0048254798   0.96566864    -0.10347784   
    915000   1.0238343      0.0043184633   0.89119015    -0.12126826   
    916000   1.0415378      0.0046708722   0.88116375    -0.1488014    
    917000   1.0517348      0.0051647351   0.90721544    -0.13283345   
    918000   0.92185837     0.0038330139   0.78195325    -0.12966225   
    919000   0.9699446      0.0042027401   0.81314434    -0.14602309   
    920000   0.97685611     0.0049308743   0.8095939     -0.15640825   
    921000   0.99259577     0.0034506034   0.84628461    -0.13528232   
    922000   0.98311954     0.0049851196   0.83405378    -0.13814221   
    923000   0.96258047     0.0036727522   0.81128224    -0.14060289   
    924000   0.95349076     0.004046263    0.80271125    -0.14018517   
    925000   0.925022       0.0042461315   0.79696132    -0.11778266   
    926000   0.9382446      0.0034740661   0.79115013    -0.13666953   
    927000   0.99694855     0.0044829427   0.83613314    -0.1497382    
    928000   0.97858557     0.0033181692   0.81350206    -0.15421034   
    929000   1.0668607      0.0051342856   0.90106239    -0.15394433   
    930000   0.97013219     0.0040614894   0.80187454    -0.15747841   
    931000   0.96014928     0.0032777658   0.8000056     -0.14947535   
    932000   1.0963256      0.0057274289   0.94934791    -0.13479634   
    933000   1.0695553      0.005338186    0.91196623    -0.14570509   
    934000   0.98833119     0.003754424    0.83191013    -0.14543961   
    935000   0.99733106     0.0039253066   0.84224507    -0.14400453   
    936000   1.0689457      0.004393234    0.90751906    -0.14954942   
    937000   1.0474703      0.0042896283   0.90095422    -0.13487755   
    938000   1.0453488      0.0031066337   0.88412354    -0.14961032   
    939000   1.0233913      0.0037514392   0.87762371    -0.1343966    
    940000   0.96984433     0.0042867673   0.83585105    -0.12321723   
    941000   0.98999172     0.004292381    0.86331479    -0.11567701   
    942000   1.0698671      0.0032602015   0.91440745    -0.14357219   
    943000   0.87281882     0.0032602169   0.75144405    -0.11167679   
    944000   1.0126791      0.0043217234   0.87006005    -0.13136706   
    945000   1.0077382      0.0044694878   0.88216669    -0.11437439   
    946000   1.0880651      0.0047949317   0.95123816    -0.12473734   
    947000   0.94418595     0.0037761258   0.82431547    -0.10937952   
    948000   1.0798551      0.0040645293   0.93286953    -0.13498718   
    949000   1.0357427      0.0041140795   0.91151711    -0.11271731   
    950000   1.0605718      0.0038421016   0.92374352    -0.12504411   
    951000   0.95625139     0.0027931479   0.79603609    -0.14959029   
    952000   1.0407546      0.004641044    0.89795689    -0.13123374   
    953000   1.0138767      0.0042537296   0.87593164    -0.12667978   
    954000   1.03493        0.0040292038   0.90242819    -0.12100256   
    955000   1.0294546      0.0045712421   0.87613801    -0.14187825   
    956000   0.94075523     0.0057083321   0.80311554    -0.12718685   
    957000   0.97520637     0.0037315742   0.84169079    -0.12267996   
    958000   0.96405958     0.0036981056   0.84909814    -0.10424967   
    959000   1.0271667      0.0044889177   0.89926988    -0.11648382   
    960000   1.0042776      0.004012334    0.87309272    -0.12002627   
    961000   1.0398619      0.0046430447   0.91121932    -0.1170886    
    962000   0.99354143     0.0045240885   0.86711239    -0.11538969   
    963000   1.0097021      0.0030482959   0.86568874    -0.13279447   
    964000   1.0192206      0.0029797448   0.89302795    -0.11486798   
    965000   1.0304777      0.0045475413   0.88108969    -0.13793826   
    966000   1.0640834      0.0043833546   0.90533502    -0.14692525   
    967000   1.0121422      0.0051538459   0.87261216    -0.12828405   
    968000   0.9851992      0.0046516572   0.84970561    -0.12454693   
    969000   1.0189969      0.0036790294   0.86839515    -0.13927951   
    970000   1.126163       0.0047509874   0.94835235    -0.16529768   
    971000   1.0159118      0.0045220751   0.84462059    -0.16000331   
    972000   0.98821932     0.0030449252   0.81991784    -0.15732126   
    973000   1.1141667      0.0040840227   0.96081328    -0.14097382   
    974000   1.0274233      0.0043463745   0.86636238    -0.14964509   
    975000   0.95886738     0.0036139021   0.8046575     -0.14355579   
    976000   1.0608394      0.0034484538   0.91717654    -0.13187579   
    977000   0.97414425     0.0040613328   0.82032812    -0.14299231   
    978000   0.93876046     0.0035011482   0.78517276    -0.14315703   
    979000   0.96524028     0.0040473347   0.83134625    -0.12316914   
    980000   0.97736796     0.0034549024   0.86882437    -0.097683944  
    981000   0.86930824     0.0036453693   0.75784232    -0.10180694   
    982000   1.0744596      0.0037149535   0.96234545    -0.10017575   
    983000   1.0158208      0.0035586435   0.89502414    -0.10950976   
    984000   0.98724366     0.0049251667   0.86311314    -0.11316115   
    985000   1.0453144      0.0046130464   0.95601681    -0.077683025  
    986000   1.0493702      0.0042630945   0.91476546    -0.12294509   
    987000   1.0174257      0.0034922154   0.88158248    -0.12453845   
    988000   0.99857029     0.0042463396   0.86469297    -0.12278209   
    989000   1.0207079      0.0034528627   0.878003      -0.13136373   
    990000   1.0101772      0.0044334221   0.88390856    -0.11504446   
    991000   0.89034113     0.0033919957   0.74935603    -0.13109242   
    992000   0.97249281     0.003720758    0.82947523    -0.13221211   
    993000   1.0351421      0.0055133697   0.88679284    -0.1368477    
    994000   1.0183724      0.0040411111   0.89775814    -0.10929904   
    995000   1.0316941      0.0044646118   0.89571835    -0.12451244   
    996000   1.0198133      0.0046615211   0.8836757     -0.12480636   
    997000   1.0221904      0.0046799189   0.88143799    -0.1293947    
    998000   1.058539       0.0034129927   0.92758703    -0.1191904    
    999000   1.0300695      0.0046917449   0.91871129    -0.099912999  
   1000000   0.99925454     0.0052132501   0.84855399    -0.13959773   
Loop time of 16.8267 on 1 procs for 1000000 steps with 405 atoms

Performance: 51346879.714 tau/day, 59429.259 timesteps/s
99.6% CPU use with 1 MPI tasks x no OpenMP threads

MPI task timing breakdown:
Section |  min time  |  avg time  |  max time  |%varavg| %total
---------------------------------------------------------------
Pair    | 0.98859    | 0.98859    | 0.98859    |   0.0 |  5.88
Bond    | 0.041223   | 0.041223   | 0.041223   |   0.0 |  0.24
Neigh   | 3.217      | 3.217      | 3.217      |   0.0 | 19.12
Comm    | 0.81004    | 0.81004    | 0.81004    |   0.0 |  4.81
Output  | 0.3161     | 0.3161     | 0.3161     |   0.0 |  1.88
Modify  | 10.154     | 10.154     | 10.154     |   0.0 | 60.34
Other   |            | 1.3        |            |       |  7.73

Nlocal:            405 ave         405 max         405 min
Histogram: 1 0 0 0 0 0 0 0 0 0
Nghost:             63 ave          63 max          63 min
Histogram: 1 0 0 0 0 0 0 0 0 0
Neighs:             25 ave          25 max          25 min
Histogram: 1 0 0 0 0 0 0 0 0 0

Total # of neighbors = 25
Ave neighs/atom = 0.061728395
Ave special neighs/atom = 0
Neighbor list builds = 212422
Dangerous builds = 0
Total wall time: 0:00:16
