fix fLANG all langevin 1.0 1.0 1.0 100
neigh_modify exclude molecule/intra all
fix rigidNVE linked_vesicle rigid/nve molecule
  1 rigid bodies with 5 atoms
fix NVE synapsin nve 1.0 1.0 1.0

    ##======================================##
    ## Output
    ##======================================##

thermo 1000
thermo_style custom step temp press etotal epair
thermo_modify flush yes
timestep 0.01

    ##======================================##
    ## Equilibration before output
    ##======================================##


    ##======================================##
    ## Run with output
    ##======================================##

fix enforce_2d all enforce2d
dump 2 all custom 1000 Results_eps_attr9_eps_rep1_range2_attr_with_repFalse_n_synapsin400_n_vesicles1/Movie_2d_eps_attr9_eps_rep1_range2_attr_with_repFalse_n_synapsin400_n_vesicles1.xyz id type mol x y z
run 1000000
Generated 0 of 3 mixed pair_coeff terms from geometric mixing rule
Neighbor list info ...
  update every 1 steps, delay 1 steps, check yes
  max neighbors/atom: 2000, page size: 100000
  master list distance cutoff = 11.52462
  ghost atom cutoff = 11.52462
  binsize = 5.7623102, bins = 55 55 1
  1 neighbor lists, perpetual/occasional/extra = 1 0 0
  (1) pair cosine/squared, perpetual
      attributes: half, newton on
      pair build: half/bin/newton
      stencil: half/bin/2d
      bin: standard
Per MPI rank memory allocation (min/avg/max) = 8.526 | 8.526 | 8.526 Mbytes
   Step          Temp          Press          TotEng         E_pair    
         0   0.99441908    -0.013071225    0.98336998     0            
      1000   1.052877       0.0040548885   1.0411809      2.5044906e-06
      2000   0.97902644     0.0030040622   0.96849889     0.00035052091
      3000   1.0601207      0.0035583022   1.0483416      0            
      4000   1.0466423      0.0043625821   1.0350129      0            
      5000   1.0005436      0.0035020426   0.98945454     2.8061539e-05
      6000   0.97028404     0.0030784247   0.95950311     0            
      7000   0.9429228      0.0035389451   0.9342467      0.001800821  
      8000   1.070792       0.0042930144   1.0588943      0            
      9000   1.099818       0.0040939823   1.0875978      0            
     10000   1.0698633      0.0046460153   1.0419779     -0.015998049  
     11000   0.96773284     0.0038713573   0.9351883     -0.021791952  
     12000   0.92909587     0.0040535004   0.89693903    -0.021833557  
     13000   0.96663697     0.0032472566   0.9342275     -0.021669062  
     14000   1.0497537      0.0052217579   0.99731303    -0.040776701  
     15000   0.96222908     0.0046542533   0.91111565    -0.040421999  
     16000   0.96312344     0.0044675777   0.91306109    -0.039360983  
     17000   1.0004807      0.0049020909   0.95292113    -0.036443137  
     18000   1.0833716      0.004382009    1.031026      -0.040308105  
     19000   0.99088527     0.003784439    0.91746764    -0.062407792  
     20000   0.99474508     0.0046722552   0.92086607    -0.062826293  
     21000   0.94407957     0.003515466    0.88566715    -0.047922655  
     22000   0.89037306     0.0026704048   0.81868999    -0.061790031  
     23000   0.9142004      0.0037601887   0.828697      -0.075345616  
     24000   0.96500147     0.0037207678   0.88136458    -0.072914652  
     25000   0.96251855     0.0043114883   0.87216777    -0.079656121  
     26000   0.9554364      0.0039039381   0.88024634    -0.064574096  
     27000   1.0077906      0.0043222542   0.91611486    -0.080478058  
     28000   1.0434371      0.0044197705   0.9353346     -0.096508792  
     29000   1.0372742      0.004745344    0.92893693    -0.096811986  
     30000   0.95801912     0.0037656251   0.84843922    -0.098935244  
     31000   1.0102692      0.0037606176   0.89394231    -0.10510163   
     32000   1.0464434      0.0045631868   0.9321734     -0.10264287   
     33000   1.0238518      0.0036298291   0.9104758     -0.10199987   
     34000   0.9458582      0.003488429    0.83539482    -0.099953841  
     35000   1.0647375      0.0038150019   0.95286515    -0.10004192   
     36000   0.98598277     0.0034420227   0.86976576    -0.10526164   
     37000   1.0154598      0.0055593543   0.90909288    -0.095084062  
     38000   0.98647887     0.0037438495   0.87701206    -0.098505934  
     39000   0.90886095     0.0043168927   0.7952691     -0.1034934    
     40000   1.0371363      0.0037475962   0.92787912    -0.097733436  
     41000   0.95111106     0.0021394075   0.84850321    -0.092039956  
     42000   1.0535108      0.0044260752   0.94008328    -0.10172188   
     43000   0.9896128      0.0050641273   0.88068321    -0.097933893  
     44000   1.0536758      0.0053398859   0.94202362    -0.099944652  
     45000   1.0203049      0.0040891842   0.91001209    -0.098956052  
     46000   1.0329215      0.0028794344   0.93573703    -0.085707587  
     47000   0.99739462     0.0039239834   0.8836551     -0.10265736   
     48000   1.0458546      0.0036430349   0.93636305    -0.09787099   
     49000   1.0019675      0.0033619464   0.88864917    -0.10218539   
     50000   0.95857673     0.0033716195   0.86601709    -0.081908789  
     51000   1.0157673      0.0048065498   0.92165542    -0.082825573  
     52000   1.1024992      0.0044907129   1.010506      -0.079743214  
     53000   1.0411297      0.0034795974   0.94164465    -0.08791693   
     54000   1.0489694      0.0043654417   0.93354236    -0.10377182   
     55000   1.0009463      0.0033530045   0.90165633    -0.088168311  
     56000   1.0449535      0.0037094765   0.90803759    -0.12530528   
     57000   0.98986438     0.0050978773   0.85156155    -0.12730433   
     58000   0.96920253     0.0039599861   0.83587908    -0.12255453   
     59000   1.0084856      0.0031891947   0.87625597    -0.12102426   
     60000   1.0312038      0.0029413485   0.90293024    -0.11681578   
     61000   1.0569933      0.0052819248   0.91779703    -0.12745189   
     62000   0.98225281     0.0040837215   0.85250445    -0.11883444   
     63000   1.0833932      0.0037789404   0.94706461    -0.12429094   
     64000   0.98554132     0.0041501787   0.86353032    -0.11106054   
     65000   1.0540111      0.0036189621   0.91876324    -0.12353665   
     66000   1.0303721      0.0035782822   0.90566561    -0.11325791   
     67000   1.0032569      0.0036278578   0.86536547    -0.12674415   
     68000   0.97808422     0.0044023318   0.85245527    -0.11476134   
     69000   0.99704992     0.0040330268   0.86102348    -0.12494811   
     70000   1.0308305      0.0036190283   0.90232766    -0.11704914   
     71000   0.97468926     0.0044408927   0.84443053    -0.11942885   
     72000   1.0580913      0.0038304996   0.92195813    -0.12437657   
     73000   0.96202318     0.0030884071   0.82786597    -0.12346806   
     74000   0.93474411     0.0042055023   0.78795484    -0.13640322   
     75000   1.0120679      0.0039539207   0.86172937    -0.13909337   
     76000   1.0564097      0.0038351871   0.90567514    -0.13899672   
     77000   1.0368771      0.0043486403   0.89168403    -0.13367225   
     78000   0.99029573     0.0035384476   0.84051334    -0.1387791    
     79000   1.0145308      0.0028996816   0.86569897    -0.13755929   
     80000   1.0643438      0.0038655839   0.90886748    -0.14365024   
     81000   0.97842608     0.0034452408   0.83985457    -0.12770011   
     82000   1.0269518      0.0051601369   0.88915967    -0.12638158   
     83000   0.99688433     0.0042826336   0.84262829    -0.14317954   
     84000   0.92078139     0.0036171026   0.74959402    -0.16095647   
     85000   0.96505176     0.0038516825   0.7911255     -0.16320346   
     86000   0.99515325     0.0039705576   0.82867078    -0.15542521   
     87000   0.94365643     0.0033579715   0.78415752    -0.14901384   
     88000   1.0228378      0.0039998584   0.8544631     -0.15700985   
     89000   0.99065316     0.0034267751   0.81786241    -0.16178349   
     90000   0.9765551      0.0033815714   0.7934187     -0.17228579   
     91000   0.99937109     0.0040590233   0.78444717    -0.2038198    
     92000   0.99583992     0.0026240158   0.77194946    -0.21282557   
     93000   1.0496314      0.0036115214   0.81429534    -0.22367353   
     94000   0.99777412     0.0044830268   0.77086418    -0.21582357   
     95000   1.006812       0.0030648981   0.77523902    -0.22038616   
     96000   1.0742111      0.0043986569   0.8428274     -0.21944803   
     97000   0.94097683     0.0039558303   0.7189603     -0.21156123   
     98000   0.99414433     0.004671929    0.77847024    -0.20462805   
     99000   0.96085239     0.0024092582   0.74310123    -0.20707502   
    100000   0.98015513     0.0033720051   0.73818488    -0.23107964   
    101000   1.1154876      0.0040695999   0.86150619    -0.2415871    
    102000   0.95926793     0.0033117744   0.71357245    -0.23503695   
    103000   1.0757768      0.0043118923   0.83813994    -0.22568375   
    104000   0.96378923     0.0038804857   0.72757973    -0.22550074   
    105000   0.98255613     0.0042171016   0.75720186    -0.21443698   
    106000   0.95072323     0.0042216452   0.71629253    -0.22386711   
    107000   1.0153975      0.0041628932   0.78520471    -0.21891063   
    108000   0.93506513     0.0033168086   0.71081236    -0.21386315   
    109000   0.99875115     0.0043936289   0.74887178    -0.23878214   
    110000   1.0703807      0.0037850614   0.81078974    -0.24769786   
    111000   1.0307908      0.0033066413   0.76182566    -0.25751189   
    112000   1.0183151      0.0037107818   0.76118203    -0.24581849   
    113000   1.0259813      0.0043225045   0.75632117    -0.2582603    
    114000   1.0417831      0.0030063342   0.77084648    -0.25936125   
    115000   1.1342909      0.0038591145   0.88159161    -0.24009606   
    116000   1.0126497      0.0039119366   0.75291191    -0.24848615   
    117000   1.0280839      0.0047392339   0.77065       -0.24601075   
    118000   1.0922271      0.0032696418   0.83230966    -0.24778161   
    119000   1.0770043      0.0045474377   0.82042759    -0.24461005   
    120000   1.033701       0.0038822654   0.76499567    -0.25721977   
    121000   1.072119       0.0054378246   0.80027588    -0.25993072   
    122000   0.95545354     0.0031225708   0.67196888    -0.27286851   
    123000   1.0228871      0.0035572174   0.73684137    -0.27468036   
    124000   0.97940791     0.0044115797   0.71954065    -0.24898495   
    125000   0.97369329     0.0030844055   0.72252621    -0.24034827   
    126000   1.0189241      0.0033634245   0.75340672    -0.25419601   
    127000   1.0062063      0.0038699001   0.7272554     -0.26777085   
    128000   1.0518457      0.0037807279   0.79346494    -0.24669362   
    129000   1.0049807      0.0043416382   0.7339067     -0.25990759   
    130000   0.99393771     0.0039518358   0.72316495    -0.25972901   
    131000   0.98895104     0.0042383182   0.71744802    -0.26051467   
    132000   0.9510076      0.0038550562   0.69797384    -0.24246701   
    133000   1.011125       0.0034739013   0.71990439    -0.27998589   
    134000   1.0505173      0.0036717429   0.77044595    -0.26839898   
    135000   1.0486372      0.0032106895   0.75455552    -0.28243015   
    136000   0.89495549     0.0039125192   0.62295464    -0.2620569    
    137000   0.99032469     0.0031831447   0.71035429    -0.2689668    
    138000   0.96515386     0.0035243695   0.67170374    -0.28272619   
    139000   0.97034953     0.0038047438   0.67368199    -0.28588587   
    140000   0.99197013     0.0045940351   0.71520346    -0.26574478   
    141000   0.98267415     0.0045520915   0.66526382    -0.30649173   
    142000   1.0390967      0.0045508615   0.72856193    -0.29898923   
    143000   0.92991438     0.0032285682   0.61529725    -0.30428475   
    144000   1.0188297      0.0037513047   0.73279336    -0.27471603   
    145000   0.91004179     0.0036150181   0.60926636    -0.29066386   
    146000   0.92911852     0.003388179    0.63232308    -0.2864719    
    147000   1.0305533      0.0040152578   0.74462101    -0.27448171   
    148000   0.99932804     0.004226682    0.71162613    -0.27659827   
    149000   0.93564139     0.0037950823   0.6369214     -0.28832397   
    150000   1.0292396      0.0036053103   0.72923165    -0.28857197   
    151000   0.95959028     0.0038759413   0.65544173    -0.29348643   
    152000   1.0554646      0.0034374178   0.75243121    -0.29130597   
    153000   1.0016779      0.0043014904   0.66809975    -0.32244843   
    154000   1.0197411      0.00395936     0.69470744    -0.31370322   
    155000   1.1198388      0.0038571262   0.79029981    -0.31709635   
    156000   1.0997502      0.0037266947   0.76565469    -0.32187605   
    157000   0.96121232     0.00448155     0.62133195    -0.32920023   
    158000   1.0429288      0.0040265893   0.6815239     -0.34981682   
    159000   0.96367913     0.003520074    0.62207634    -0.33089524   
    160000   0.99610019     0.0034756128   0.62162371    -0.3634087    
    161000   0.96459863     0.0031899209   0.59659729    -0.35728358   
    162000   1.049262       0.0035444498   0.65896686    -0.3786367    
    163000   1.0255576      0.0036261527   0.61803504    -0.39612751   
    164000   1.0133472      0.0051034796   0.62135575    -0.380732     
    165000   1.0534691      0.0036142801   0.66879613    -0.37296773   
    166000   0.89681706     0.0027761675   0.53777444    -0.34907799   
    167000   0.97899229     0.0023637366   0.60797597    -0.36013863   
    168000   1.0746701      0.0040352682   0.69076709    -0.37196219   
    169000   1.0194578      0.00327107     0.58456281    -0.42356771   
    170000   0.99628218     0.004300719    0.59228642    -0.39292596   
    171000   1.0089673      0.0038269322   0.59787793    -0.39987866   
    172000   1.0515414      0.0046955548   0.61457502    -0.42528262   
    173000   1.0041801      0.0034106852   0.61327229    -0.37975029   
    174000   1.074817       0.0048822759   0.70707619    -0.35579845   
    175000   0.97471266     0.00394139     0.57664538    -0.38723714   
    176000   0.95935902     0.0035140211   0.56345769    -0.38524179   
    177000   1.0131819      0.0037016058   0.63845905    -0.36346523   
    178000   0.98254501     0.0031965606   0.58165956    -0.38996828   
    179000   1.0126061      0.0043611579   0.59373251    -0.40762242   
    180000   0.93035415     0.0029807836   0.51010001    -0.40991687   
    181000   1.0018343      0.0039691182   0.60168187    -0.3890209    
    182000   0.98250044     0.0022547436   0.62747408    -0.34410969   
    183000   1.0312218      0.0043835395   0.67925462    -0.34050916   
    184000   1.0541718      0.0041872774   0.68623195    -0.35622686   
    185000   1.0268583      0.003690905    0.66343598    -0.35201277   
    186000   0.98621756     0.0036751411   0.60355446    -0.37170513   
    187000   0.98244705     0.0033620328   0.62326272    -0.34826825   
    188000   1.003537       0.0023719426   0.64135665    -0.35102993   
    189000   0.88725029     0.0041646798   0.51449849    -0.36289347   
    190000   1.058131       0.0056787214   0.69206113    -0.35431284   
    191000   1.0413205      0.0039251811   0.67772132    -0.35202898   
    192000   1.0362823      0.0038993697   0.67584718    -0.34892087   
    193000   1.0192794      0.0044513103   0.65335729    -0.35459674   
    194000   0.97093486     0.0030878319   0.58960433    -0.37054237   
    195000   1.0653045      0.0042326981   0.68619152    -0.3672763    
    196000   1.0382189      0.003800046    0.65981863    -0.36686448   
    197000   1.01168        0.0051190321   0.63532827    -0.36511088   
    198000   0.91609866     0.0033479926   0.54655937    -0.35936042   
    199000   0.98019047     0.0036713372   0.60767293    -0.36162653   
    200000   0.98613457     0.0052670507   0.60455273    -0.37062478   
    201000   1.0334543      0.0048583141   0.63928267    -0.3826888    
    202000   0.99574928     0.0041391748   0.58231241    -0.40237299   
    203000   0.91822938     0.0021835123   0.53565251    -0.37237432   
    204000   0.96882692     0.0041667398   0.55147529    -0.40658689   
    205000   0.98439247     0.004367788    0.59863429    -0.37482049   
    206000   0.95463542     0.003044067    0.54956693    -0.39446144   
    207000   1.0356204      0.0032089339   0.63304663    -0.3910669    
    208000   0.94717421     0.0040526597   0.56403206    -0.372618     
    209000   0.99253826     0.0035124802   0.58120534    -0.40030472   
    210000   0.9757789      0.0034405333   0.58655379    -0.37838312   
    211000   1.0547767      0.0038878919   0.65644189    -0.38661512   
    212000   0.98245883     0.0039362616   0.56897082    -0.40257181   
    213000   0.99759267     0.0040384969   0.58490206    -0.40160624   
    214000   1.0225545      0.0036519596   0.62280015    -0.38839261   
    215000   1.0081418      0.0054620232   0.57988377    -0.41705641   
    216000   0.99795266     0.0034860146   0.57916036    -0.40770394   
    217000   0.96653502     0.0045682381   0.54182983    -0.41396591   
    218000   1.0297792      0.0023758001   0.60812379    -0.41021337   
    219000   0.97064855     0.0042912417   0.5578383     -0.40202527   
    220000   1.0657761      0.0048507441   0.61461784    -0.4393163    
    221000   1.0845578      0.0043447541   0.67183194    -0.40067522   
    222000   1.0571018      0.0035886228   0.60790524    -0.43745097   
    223000   0.9605078      0.0043554887   0.54064068    -0.40919481   
    224000   0.98973534     0.0038866559   0.55896281    -0.41977547   
    225000   1.0042795      0.0036228925   0.58648445    -0.40663643   
    226000   0.94856051     0.0050979925   0.49923255    -0.43878839   
    227000   1.0107391      0.0045151634   0.6091613     -0.39034734   
    228000   0.97310459     0.0029987896   0.56814887    -0.39414345   
    229000   1.0701668      0.0040228252   0.67064312    -0.38763289   
    230000   0.96818376     0.002885934    0.56526232    -0.39216384   
    231000   1.0216689      0.0040793115   0.6139208     -0.39639619   
    232000   1.0682535      0.0037517867   0.64634577    -0.41003827   
    233000   1.0091108      0.0038017764   0.56194122    -0.4359572    
    234000   0.92370564     0.0029393104   0.50621079    -0.40723146   
    235000   0.99339802     0.0043308599   0.57723164    -0.40512863   
    236000   1.058296       0.0044944839   0.61960516    -0.42693195   
    237000   0.99827995     0.0038808353   0.58609989    -0.40108806   
    238000   0.99964993     0.0039220161   0.55812791    -0.43041481   
    239000   0.94299037     0.0043348291   0.51368627    -0.41882643   
    240000   0.98528377     0.0045112184   0.54747091    -0.42686526   
    241000   0.9151943      0.002910026    0.47914253    -0.42588295   
    242000   0.96588835     0.0032664326   0.54296074    -0.41219551   
    243000   0.94460655     0.0031373097   0.53047939    -0.40363153   
    244000   0.94504094     0.0036553465   0.51563979    -0.41890069   
    245000   0.94554914     0.0026557173   0.51275036    -0.42229268   
    246000   0.96069277     0.0034556671   0.523913      -0.4261054    
    247000   1.1212723      0.0053523981   0.65394498    -0.4548687    
    248000   0.9927393      0.0038215853   0.54872168    -0.43298719   
    249000   1.0526277      0.0047080093   0.58498163    -0.45595025   
    250000   0.98289989     0.0033878725   0.5415756     -0.43040318   
    251000   0.93952156     0.0027417428   0.49474243    -0.43434      
    252000   0.96175401     0.0038637527   0.52736358    -0.42370427   
    253000   0.97809149     0.0033895817   0.55576365    -0.41146016   
    254000   1.0350321      0.004421067    0.61754154    -0.40599016   
    255000   0.93520481     0.0029240164   0.50969793    -0.41511571   
    256000   0.95077092     0.0029676746   0.52222167    -0.41798513   
    257000   1.0050995      0.0029458335   0.57738594    -0.41654577   
    258000   1.0049133      0.0032224386   0.55275651    -0.44099108   
    259000   1.0310193      0.0043027731   0.58978318    -0.42978037   
    260000   0.9108964      0.0036130701   0.47164241    -0.42913292   
    261000   1.034249       0.0051862803   0.59397316    -0.42878422   
    262000   0.93167373     0.0038562908   0.48820167    -0.43312013   
    263000   0.9550403      0.0043222517   0.49482239    -0.44960636   
    264000   0.97940293     0.0045551135   0.55062438    -0.4178963    
    265000   1.0424945      0.0050416181   0.62680966    -0.40410153   
    266000   0.99494785     0.0030104889   0.54741414    -0.43647873   
    267000   0.91971388     0.0033722941   0.49129964    -0.4181952    
    268000   0.99795503     0.0037319239   0.57967778    -0.40718886   
    269000   0.95453057     0.0033054766   0.53333283    -0.41059185   
    270000   1.0555298      0.0042515048   0.65436661    -0.38943511   
    271000   1.048374       0.0034807922   0.62498047    -0.41174491   
    272000   0.95961323     0.0045333565   0.53056363    -0.41838723   
    273000   1.0400321      0.0050706294   0.6269584     -0.40151776   
    274000   1.0062753      0.0038560996   0.56743705    -0.42765738   
    275000   0.96824566     0.0038305618   0.53728519    -0.42020219   
    276000   1.0187143      0.004126796    0.56374139    -0.44365385   
    277000   0.88085477     0.0036767684   0.4426078     -0.42845969   
    278000   1.0219359      0.0035650563   0.57342483    -0.43715626   
    279000   0.9571428      0.0040591696   0.55686564    -0.38964224   
    280000   0.98197507     0.0030212932   0.53953243    -0.43153181   
    281000   1.0673735      0.0040919152   0.63654674    -0.41896703   
    282000   1.0355929      0.0033867607   0.59419434    -0.42989197   
    283000   0.90110031     0.0025943324   0.44666442    -0.44442366   
    284000   1.0453701      0.0049129083   0.59903342    -0.43472146   
    285000   1.02947        0.0048616966   0.57179187    -0.44623954   
    286000   1.0005831      0.0033023214   0.56559064    -0.42387484   
    287000   1.0069662      0.0045835785   0.57066409    -0.42511361   
    288000   0.93627988     0.0037169212   0.52603778    -0.399839     
    289000   0.9838464      0.0048681324   0.55644381    -0.41647097   
    290000   1.030825       0.0042958173   0.59194218    -0.42742919   
    291000   0.98743841     0.0030680141   0.52854885    -0.44791802   
    292000   0.96305664     0.0044329762   0.45998268    -0.49237333   
    293000   1.0124491      0.0043062757   0.54908534    -0.45211429   
    294000   0.98461634     0.0039567619   0.48704222    -0.48663394   
    295000   1.055406       0.0044206118   0.56652172    -0.47715755   
    296000   0.94691423     0.0039929274   0.46137044    -0.47502253   
    297000   1.0331891      0.0046960924   0.53316271    -0.48854647   
    298000   1.0389197      0.0040370387   0.53088101    -0.49649513   
    299000   0.93834449     0.0034030596   0.45910302    -0.46881542   
    300000   0.97399587     0.0032878469   0.45920788    -0.50396582   
    301000   1.0216952      0.0038158384   0.49905502    -0.51128797   
    302000   0.9376695      0.0025746314   0.41485654    -0.51239441   
    303000   0.99480788     0.0026222136   0.47945102    -0.50430344   
    304000   1.0163725      0.0034717343   0.45946201    -0.54561747   
    305000   1.0202798      0.0030836122   0.47701573    -0.53192758   
    306000   0.9930368      0.0040470266   0.45451228    -0.52749078   
    307000   1.0134326      0.0033265374   0.48578215    -0.51639006   
    308000   0.98787191     0.0041831321   0.42078887    -0.55610669   
    309000   0.89924131     0.0034348726   0.38254587    -0.50670387   
    310000   0.98392581     0.0044843543   0.44043782    -0.53255548   
    311000   0.99844851     0.0028891333   0.46694259    -0.52041205   
    312000   1.037483       0.0048644619   0.50278986    -0.52316557   
    313000   1.0367329      0.0022595869   0.49821113    -0.52700251   
    314000   0.91971251     0.0032441645   0.39058839    -0.51890509   
    315000   1.1018353      0.0033830163   0.53816506    -0.55142767   
    316000   0.98339829     0.0033478089   0.43056772    -0.54190392   
    317000   0.94075346     0.0036015874   0.39878349    -0.53151715   
    318000   1.0667744      0.0040643305   0.53526799    -0.51965339   
    319000   1.0827192      0.0034408617   0.52496776    -0.54572119   
    320000   0.95365463     0.0044987619   0.39105127    -0.5520072    
    321000   0.94327334     0.0031295236   0.35673883    -0.5760537    
    322000   1.0176974      0.0046809041   0.43818082    -0.56820882   
    323000   1.0650097      0.0046260809   0.52913315    -0.52404314   
    324000   0.96323979     0.002880273    0.38873598    -0.56380115   
    325000   1.011367       0.00343095     0.4164771     -0.58365253   
    326000   1.0849295      0.0047837493   0.5121491     -0.56072566   
    327000   1.0011039      0.0031008268   0.42996896    -0.56001157   
    328000   1.0482871      0.0034427575   0.46006285    -0.57657657   
    329000   1.0212636      0.0044457681   0.41802208    -0.59189414   
    330000   1.0591762      0.0044388578   0.4629538     -0.58445375   
    331000   0.97957789     0.0039101789   0.38286251    -0.58583118   
    332000   1.0657296      0.0043849607   0.44737424    -0.60651396   
    333000   1.0359397      0.0045155887   0.47675731    -0.54767193   
    334000   1.0323081      0.0042675402   0.46383069    -0.5570073    
    335000   0.96505361     0.0038955549   0.43103001    -0.52330079   
    336000   1.0204651      0.0042633901   0.49284151    -0.51628512   
    337000   1.0430457      0.0034113367   0.50492049    -0.52653577   
    338000   1.0593216      0.0041697937   0.51982092    -0.52773044   
    339000   1.0638522      0.0042561553   0.52093672    -0.53109494   
    340000   1.0272766      0.0032454232   0.49206694    -0.52379552   
    341000   0.9847231      0.0029563707   0.46852766    -0.50525407   
    342000   0.95264969     0.0028705888   0.4252431     -0.51682159   
    343000   1.078325       0.0035936368   0.54249487    -0.52384873   
    344000   1.1043443      0.0042198467   0.58853812    -0.50353565   
    345000   0.95357629     0.0034809487   0.42197621    -0.52100479   
    346000   1.0200588      0.0047515946   0.4561773     -0.55254757   
    347000   1.0747933      0.0040724722   0.5639353     -0.49891586   
    348000   1.0011936      0.0029532812   0.47898572    -0.51108348   
    349000   1.0098611      0.0038477425   0.48755365    -0.51108672   
    350000   0.90945249     0.002178151    0.42881678    -0.47053068   
    351000   0.94230409     0.0031741336   0.40830784    -0.52352621   
    352000   1.1152745      0.0048104411   0.59705252    -0.50583007   
    353000   1.0339616      0.0033098123   0.49827424    -0.52419889   
    354000   0.93705592     0.0041390801   0.42776785    -0.49887634   
    355000   0.98571371     0.0041571388   0.46737647    -0.50738487   
    356000   1.0179242      0.004531431    0.49657369    -0.51004023   
    357000   0.98771766     0.0043099153   0.43825697    -0.53848605   
    358000   0.96977715     0.0032279767   0.4148793     -0.54412255   
    359000   0.98487346     0.0042372788   0.48958068    -0.48434973   
    360000   0.99348005     0.0031014359   0.45342701    -0.52901437   
    361000   1.0379477      0.0034232535   0.51886687    -0.50754803   
    362000   1.0568369      0.0046787411   0.53536111    -0.50973314   
    363000   1.0221449      0.0036044068   0.48033906    -0.53044864   
    364000   0.96750279     0.0046817408   0.42144225    -0.53531051   
    365000   1.0166895      0.0035901765   0.47726156    -0.52813138   
    366000   1.0050485      0.0041674511   0.44477873    -0.54910253   
    367000   1.0245851      0.0045476043   0.46397183    -0.54922896   
    368000   0.96920346     0.0046211527   0.41761982    -0.54081471   
    369000   0.89722676     0.0037784829   0.33653813    -0.55071944   
    370000   0.94477906     0.0028277413   0.41495362    -0.5193279    
    371000   1.0284286      0.0046075375   0.46632723    -0.55067437   
    372000   1.0190483      0.0038846088   0.50321393    -0.50451157   
    373000   0.9727653      0.0038120739   0.45634486    -0.50561194   
    374000   0.98987999     0.0047013715   0.46626153    -0.51261979   
    375000   1.0326549      0.0041062155   0.53859698    -0.48258395   
    376000   1.020251       0.0042002604   0.47456101    -0.53435391   
    377000   0.95085776     0.0041470673   0.41935402    -0.52093866   
    378000   1.0865938      0.0035746262   0.57003991    -0.50448058   
    379000   0.98957339     0.0042804418   0.49185177    -0.48672636   
    380000   0.96998567     0.0047570905   0.4619804     -0.49722765   
    381000   0.98869571     0.0046173752   0.49678234    -0.48092786   
    382000   0.9904644      0.0037624353   0.51898885    -0.46047038   
    383000   1.0304038      0.0039145457   0.51638858    -0.50256631   
    384000   1.0923898      0.0041540499   0.56641195    -0.51384022   
    385000   1.0163939      0.0040527101   0.51260384    -0.49249677   
    386000   1.0249476      0.0042964055   0.50922416    -0.50433516   
    387000   0.9760547      0.0048217414   0.44961747    -0.51559218   
    388000   1.0045067      0.0031758526   0.49288059    -0.5004649    
    389000   1.0173936      0.003915668    0.48961204    -0.51647714   
    390000   0.97923516     0.0039490095   0.46238941    -0.50596536   
    391000   1.098561       0.0037671152   0.60348966    -0.48286507   
    392000   0.96130609     0.0044623525   0.48210364    -0.46852127   
    393000   1.0505939      0.0033749108   0.54073696    -0.49818371   
    394000   1.0469432      0.003652978    0.52933611    -0.5059744    
    395000   0.98236604     0.0032827693   0.45686899    -0.51458187   
    396000   0.94228976     0.0039690632   0.40544846    -0.52637141   
    397000   0.97779567     0.0020292234   0.46578363    -0.50114765   
    398000   0.96283523     0.0030026192   0.43046241    -0.52167465   
    399000   0.94445695     0.0028571033   0.40900024    -0.52496274   
    400000   1.0707701      0.0047531857   0.572165      -0.48670762   
    401000   1.0297789      0.0031905208   0.5341088     -0.48422811   
    402000   0.91107933     0.0033700542   0.40515287    -0.49580335   
    403000   1.0394501      0.005198334    0.5369521     -0.49094858   
    404000   0.99146233     0.0033002282   0.46355757    -0.51688851   
    405000   1.0631147      0.0046710941   0.54248603    -0.50881627   
    406000   0.97728913     0.0044912855   0.46111415    -0.50531621   
    407000   1.0296374      0.0040729403   0.50454078    -0.51365624   
    408000   1.0132134      0.0025300943   0.51250945    -0.48944606   
    409000   1.0711502      0.0051548184   0.56390143    -0.49534706   
    410000   0.98229389     0.0041619239   0.50846054    -0.46291897   
    411000   0.94945138     0.0039925931   0.47118009    -0.46772183   
    412000   0.96189388     0.0031599006   0.48619255    -0.46501362   
    413000   1.0433388      0.0042666202   0.57671359    -0.45503254   
    414000   0.98618718     0.0033409221   0.50313202    -0.47209753   
    415000   0.98429206     0.0050443991   0.51703539    -0.4563201    
    416000   1.0830574      0.0037987708   0.63700746    -0.43401601   
    417000   0.93259743     0.0034417322   0.46792393    -0.45431131   
    418000   1.0479081      0.0045330637   0.53618009    -0.50008457   
    419000   0.91873654     0.0026850092   0.44866659    -0.45986176   
    420000   0.99921609     0.0031837274   0.50696006    -0.48115364   
    421000   1.0899991      0.0043539672   0.5731148     -0.50477316   
    422000   1.0282616      0.0049642788   0.51897468    -0.49786179   
    423000   0.97310249     0.0047102091   0.4442268     -0.51806344   
    424000   0.99777906     0.0033754758   0.44603154    -0.54066109   
    425000   0.98307596     0.0037858431   0.4350595     -0.53709339   
    426000   0.97474289     0.0033667374   0.41731151    -0.54660091   
    427000   0.90498659     0.0029924659   0.36898845    -0.52594274   
    428000   1.015431       0.0036566843   0.45055611    -0.55359229   
    429000   0.92256522     0.0037629003   0.34682558    -0.56548891   
    430000   0.9742415      0.0039954194   0.38815309    -0.57526351   
    431000   0.96694694     0.002348309    0.38913713    -0.56706596   
    432000   1.0692606      0.0042894621   0.47261161    -0.58476831   
    433000   0.8859772      0.0035093182   0.3073147     -0.56881831   
    434000   0.96566574     0.0024511913   0.38723348    -0.56770264   
    435000   1.0229192      0.003548982    0.42309008    -0.58846337   
    436000   0.99102512     0.0034040376   0.3982463     -0.58176743   
    437000   1.0750732      0.0050382192   0.47359031    -0.58953765   
    438000   0.91603759     0.0025755104   0.33210313    -0.57375627   
    439000   0.99411933     0.0025900665   0.4024896     -0.58058396   
    440000   0.99334104     0.0046353904   0.41231449    -0.56998943   
    441000   1.0235551      0.0039774066   0.41244723    -0.59973499   
    442000   0.98940911     0.0032839375   0.41996251    -0.55845317   
    443000   1.0594894      0.0023084795   0.49547339    -0.55224386   
    444000   0.99251713     0.0037797348   0.44757875    -0.53391041   
    445000   1.0626532      0.0031413902   0.47773776    -0.57310819   
    446000   1.0305864      0.0042706159   0.49918704    -0.51994845   
    447000   1.0936847      0.0038664414   0.53370158    -0.54783104   
    448000   0.97096272     0.0035800158   0.4140091     -0.54616514   
    449000   0.89856012     0.0047224697   0.31899884    -0.56957728   
    450000   0.97714024     0.0029244878   0.37910397    -0.58717915   
    451000   0.92372142     0.0034323055   0.34450638    -0.56895146   
    452000   1.0814239      0.0039897017   0.47348384    -0.59592423   
    453000   1.0311362      0.0045376958   0.4300947     -0.58958445   
    454000   1.0316024      0.0036172021   0.41962692    -0.60051318   
    455000   0.97762273     0.0052189825   0.35669072    -0.61006954   
    456000   0.96720274     0.0032130443   0.34132204    -0.615134     
    457000   1.0647379      0.0046143796   0.45037451    -0.60253294   
    458000   1.0127531      0.0024370182   0.40150023    -0.60000003   
    459000   0.98420433     0.0041848715   0.36737741    -0.60589132   
    460000   0.92409791     0.0049444239   0.29285316    -0.620977     
    461000   1.0957563      0.0037735062   0.51791111    -0.56567011   
    462000   0.96966395     0.0041007909   0.36541988    -0.59347003   
    463000   1.0001537      0.0024921627   0.36805846    -0.62098243   
    464000   0.90512446     0.0043221989   0.28167155    -0.61339598   
    465000   0.96355854     0.0037071902   0.37053485    -0.58231748   
    466000   0.96986096     0.0046729945   0.36638628    -0.59269845   
    467000   0.97547187     0.0036681876   0.37173081    -0.59290248   
    468000   0.98908772     0.0028338922   0.36557547    -0.61252239   
    469000   1.0665069      0.0041252504   0.42815711    -0.62649971   
    470000   0.9987809      0.0041446373   0.35777768    -0.62990566   
    471000   0.98821457     0.0035284565   0.37223369    -0.60500072   
    472000   1.0365799      0.0038725544   0.43008075    -0.59498163   
    473000   1.0693152      0.0020047391   0.48225296    -0.57518091   
    474000   1.0681124      0.003168736    0.44689208    -0.6093524    
    475000   1.0119583      0.0058652351   0.41563104    -0.58508329   
    476000   1.0254179      0.0030206188   0.43669694    -0.57732743   
    477000   1.0421245      0.0035451702   0.4295308     -0.60101457   
    478000   0.92193845     0.0028073749   0.31908372    -0.59261097   
    479000   0.99717104     0.0025242858   0.40092258    -0.58516878   
    480000   1.0205965      0.0038710761   0.42237359    -0.58688292   
    481000   1.0155321      0.0033474559   0.45497633    -0.54927213   
    482000   1.1262855      0.0034234558   0.53586215    -0.5779091    
    483000   0.96119771     0.0037592768   0.39530214    -0.5552156    
    484000   0.98931799     0.0035559366   0.38616494    -0.59216063   
    485000   1.0243409      0.004466503    0.42887308    -0.58408626   
    486000   0.9631756      0.0040106639   0.39759673    -0.55487692   
    487000   0.94608502     0.0038924168   0.36720505    -0.56836791   
    488000   0.94724154     0.0024695026   0.36830955    -0.56840709   
    489000   1.0019729      0.0043407641   0.41060551    -0.58023437   
    490000   1.0886352      0.0045739698   0.51628127    -0.56025796   
    491000   0.94858989     0.0024051705   0.38517828    -0.55287173   
    492000   0.99058065     0.0032376618   0.41167542    -0.56789878   
    493000   1.0453605      0.0037541946   0.463003      -0.57074237   
    494000   1.0066852      0.0039812241   0.42104363    -0.57445617   
    495000   0.91575053     0.0055854609   0.32685477    -0.57872075   
    496000   0.96048498     0.0034631071   0.39345786    -0.55635506   
    497000   1.0230526      0.0044435208   0.44327591    -0.56840941   
    498000   0.99265237     0.0032050671   0.437188      -0.5444349    
    499000   1.0659231      0.0043941937   0.46500961    -0.58906994   
    500000   1.0020927      0.0039879673   0.45497706    -0.53598127   
    501000   1.0459608      0.0044646204   0.48537265    -0.54896637   
    502000   1.0270882      0.004239983    0.45831388    -0.55736227   
    503000   0.98503366     0.0021776172   0.41793832    -0.55615052   
    504000   0.99162115     0.0045534602   0.41811       -0.56249314   
    505000   0.98211759     0.003643921    0.37838197    -0.59282321   
    506000   0.99772693     0.0042950194   0.43309762    -0.55354345   
    507000   1.0396993      0.0033200365   0.49108148    -0.5370656    
    508000   0.96823438     0.0028143215   0.40566367    -0.55181255   
    509000   0.9960842      0.0034487054   0.44353707    -0.54147952   
    510000   1.0285391      0.0031330622   0.47047768    -0.54663324   
    511000   1.0197027      0.0045822045   0.44759676    -0.5607759    
    512000   1.0228525      0.0035928885   0.45294819    -0.55853928   
    513000   1.0402313      0.003909009    0.48949744    -0.53917577   
    514000   1.0001646      0.0031100256   0.49596766    -0.49308403   
    515000   0.99368791     0.0043119628   0.46184867    -0.52079826   
    516000   1.0185944      0.0041873537   0.49311338    -0.51416333   
    517000   1.0228358      0.0043399426   0.49731185    -0.51415907   
    518000   0.99572541     0.0039626494   0.4884515     -0.49621029   
    519000   0.95398493     0.0038446217   0.40086589    -0.54251921   
    520000   1.0737625      0.0048412046   0.52649333    -0.53533844   
    521000   0.91012209     0.0039901271   0.32442637    -0.57558325   
    522000   0.92538252     0.0035993977   0.36881897    -0.54628152   
    523000   1.0102478      0.0037381856   0.44267333    -0.55634951   
    524000   1.0770006      0.003885743    0.50796033    -0.55707361   
    525000   0.97416357     0.003575834    0.39926138    -0.56407815   
    526000   0.97284785     0.0032605552   0.39137406    -0.57066437   
    527000   1.0427533      0.0047935055   0.49234387    -0.53882326   
    528000   1.0097534      0.0033967012   0.42962727    -0.56890665   
    529000   0.9388311      0.0037856464   0.37155806    -0.55684158   
    530000   0.98087418     0.0030185429   0.40360398    -0.5663716    
    531000   0.98285925     0.0029943169   0.425114      -0.54682459   
    532000   0.98218667     0.003926094    0.43028759    -0.54098589   
    533000   1.0009128      0.0037603815   0.44361155    -0.54617998   
    534000   0.922802       0.00321493     0.383343      -0.52920565   
    535000   1.1087445      0.0040225105   0.54061807    -0.55580707   
    536000   1.0058927      0.0033486967   0.45976649    -0.5349496    
    537000   1.0519842      0.002555617    0.49644845    -0.54384701   
    538000   1.017482       0.0051201489   0.47483782    -0.53133884   
    539000   0.97895524     0.0046794851   0.41875635    -0.54932161   
    540000   0.98892153     0.0027142983   0.4446627     -0.53327081   
    541000   1.054803       0.0037319871   0.44263024    -0.6004527    
    542000   1.022593       0.0036195339   0.4139914     -0.59723949   
    543000   1.0338781      0.0035584406   0.47025375    -0.55213685   
    544000   1.0030985      0.0045623537   0.39323604    -0.59871694   
    545000   0.98286935     0.0038082979   0.45765351    -0.51429508   
    546000   0.94033447     0.0041179968   0.35664787    -0.57323844   
    547000   1.0186077      0.0047306967   0.46983461    -0.53745523   
    548000   1.0269121      0.0039539558   0.44347059    -0.57203134   
    549000   1.0237541      0.0036118224   0.4203353     -0.59204371   
    550000   1.1584543      0.0049674099   0.54782618    -0.59775644   
    551000   0.97603611     0.0030762675   0.36452998    -0.60066129   
    552000   0.91836067     0.0028057586   0.327432      -0.58072466   
    553000   1.0815162      0.0046612491   0.47796782    -0.59153159   
    554000   0.98589962     0.0043543135   0.40219623    -0.57274895   
    555000   1.0425561      0.0049096174   0.45829497    -0.57267717   
    556000   1.0272672      0.0037648014   0.43212978    -0.5837233    
    557000   1.0435034      0.004916262    0.48728514    -0.54462373   
    558000   0.95744365     0.0044511644   0.3929664     -0.55383899   
    559000   0.95999739     0.0051561587   0.42586491    -0.52346584   
    560000   1.0341328      0.0051981897   0.48238037    -0.54026208   
    561000   1.0326626      0.0046342397   0.46375498    -0.55743362   
    562000   0.98724878     0.0052523134   0.43679847    -0.53948087   
    563000   0.98312912     0.0034145191   0.44981389    -0.52239158   
    564000   1.0647806      0.0038147388   0.52623586    -0.52671387   
    565000   0.94686905     0.00517011     0.42598085    -0.51036743   
    566000   1.0331695      0.0036649537   0.47698663    -0.54470318   
    567000   0.94751781     0.0031573614   0.42853043    -0.50845941   
    568000   0.9883434      0.0035384086   0.47620051    -0.5011613    
    569000   1.0103944      0.0041513589   0.49387256    -0.50529524   
    570000   1.0288742      0.0035820122   0.51310699    -0.50433532   
    571000   1.0548793      0.0036696843   0.54748594    -0.49567252   
    572000   0.98411624     0.0033171192   0.49080481    -0.4823768    
    573000   1.033503       0.002943259    0.53628334    -0.48573625   
    574000   1.0136969      0.00355331     0.53041415    -0.47201946   
    575000   1.0825402      0.0039362084   0.62603389    -0.44447807   
    576000   1.0274205      0.0046140169   0.54511593    -0.4708888    
    577000   1.0520618      0.0048630748   0.55109519    -0.48927701   
    578000   0.96908488     0.0026911083   0.46305787    -0.4952594    
    579000   0.94094181     0.0040386325   0.40052726    -0.52995965   
    580000   0.82742451     0.0026611253   0.32228199    -0.49594892   
    581000   0.99448944     0.0040943217   0.4748573     -0.50858225   
    582000   1.0689717      0.0033154306   0.54179213    -0.51530207   
    583000   1.0547754      0.0039400255   0.55741779    -0.48563789   
    584000   0.93779296     0.0032004674   0.38389433    -0.5434787    
    585000   0.88228489     0.0035977126   0.32149783    -0.5509839    
    586000   1.0426984      0.0048571118   0.48567502    -0.54543784   
    587000   1.09022        0.0034280365   0.54237708    -0.53572941   
    588000   1.0490321      0.0039583846   0.46944612    -0.5679301    
    589000   1.0780217      0.0032278885   0.54583985    -0.52020383   
    590000   1.0277492      0.0037023539   0.47444258    -0.54188714   
    591000   1.0967415      0.0038631741   0.5620823     -0.52247314   
    592000   0.84807089     0.0032376254   0.29056578    -0.54808211   
    593000   1.0087814      0.004036271    0.46504786    -0.53252483   
    594000   0.9535502      0.0035932656   0.42045871    -0.52249648   
    595000   0.93439577     0.0027783361   0.42945549    -0.4945581    
    596000   1.0400324      0.0035395515   0.5215632     -0.50691328   
    597000   1.0352218      0.0040383949   0.50786479    -0.51585452   
    598000   1.011825       0.0044317711   0.47207346    -0.52850904   
    599000   0.9858016      0.0035144103   0.46663993    -0.50820832   
    600000   1.1272446      0.003577915    0.55600553    -0.55871413   
    601000   1.0048639      0.0044952181   0.47427923    -0.51941947   
    602000   1.0151982      0.0038581685   0.46649241    -0.53742578   
    603000   0.94018583     0.0040955799   0.39947393    -0.53026539   
    604000   0.93338393     0.002695681    0.39158232    -0.53143068   
    605000   0.96409624     0.0032117299   0.43329259    -0.52009147   
    606000   0.99595861     0.0032917346   0.42222161    -0.56267079   
    607000   0.97723064     0.0057632079   0.42461972    -0.54175281   
    608000   1.0311275      0.0020776354   0.51416938    -0.50550114   
    609000   0.94077042     0.0035261237   0.41122656    -0.51909086   
    610000   0.98001537     0.0024466383   0.42698652    -0.54213979   
    611000   0.95936248     0.0034426073   0.40274351    -0.54595938   
    612000   1.000371       0.0043802542   0.44631855    -0.54293723   
    613000   0.9819851      0.0037636212   0.4475167     -0.52355745   
    614000   1.0045706      0.0042101069   0.4495109     -0.5438978    
    615000   1.0250797      0.0038969601   0.48232837    -0.53136153   
    616000   1.0563004      0.0037026695   0.49836496    -0.54619878   
    617000   0.90423977     0.0024142662   0.35959442    -0.53459824   
    618000   0.98731406     0.0034490536   0.42911245    -0.54723145   
    619000   1.0543717      0.0043675377   0.47635572    -0.56630075   
    620000   0.96687263     0.00297078     0.3802517     -0.5758779    
    621000   0.94626826     0.0034718087   0.36846627    -0.5672879    
    622000   0.93404129     0.0048410275   0.34791743    -0.57574562   
    623000   0.93128877     0.0036614628   0.34602639    -0.57491472   
    624000   1.0184554      0.0047245758   0.46244782    -0.54469136   
    625000   0.99559172     0.0032288007   0.42267962    -0.56184996   
    626000   1.0275618      0.0044029823   0.44202256    -0.5741219    
    627000   1.0517919      0.0043628268   0.50431597    -0.53578937   
    628000   1.0415027      0.0052363427   0.43558359    -0.5943469    
    629000   0.90367987     0.0040029393   0.34177979    -0.55185919   
    630000   1.013407       0.0027586379   0.43632644    -0.56582052   
    631000   0.98238992     0.0051451515   0.44120184    -0.53027263   
    632000   0.97903747     0.0040221124   0.41856327    -0.549596     
    633000   1.0023518      0.0047451264   0.4397421     -0.55147248   
    634000   1.0407124      0.0050602343   0.48595788    -0.54319102   
    635000   1.0249375      0.0037909923   0.47574745    -0.53780182   
    636000   1.0104588      0.0038189213   0.43663978    -0.56259169   
    637000   1.0623189      0.0044950993   0.48599665    -0.56451868   
    638000   1.0116865      0.0029806785   0.47286479    -0.52758072   
    639000   0.98842365     0.0036020519   0.43454021    -0.54290096   
    640000   0.99227489     0.0029481004   0.42769789    -0.55355172   
    641000   1.0770938      0.0050526153   0.46534056    -0.59978553   
    642000   0.88705086     0.0044169734   0.27753026    -0.59966447   
    643000   1.0043547      0.0033142763   0.43881785    -0.55437739   
    644000   0.96215233     0.0033227642   0.3752102     -0.57625155   
    645000   0.9652056      0.0022341049   0.37057246    -0.58390863   
    646000   1.0054117      0.004823516    0.41103498    -0.58320551   
    647000   1.0391396      0.0039859324   0.4216603     -0.60593326   
    648000   1.0428595      0.0044527239   0.42987302    -0.60139918   
    649000   0.94797654     0.0042717953   0.35797283    -0.57947064   
    650000   1.0053268      0.0028609717   0.40019049    -0.59396597   
    651000   0.91139656     0.0039674518   0.32307619    -0.57819374   
    652000   1.0455567      0.0041755027   0.43090409    -0.60303532   
    653000   1.043408       0.0032269627   0.43947117    -0.59234338   
    654000   1.0438114      0.0032183357   0.44959358    -0.58261995   
    655000   1.0076422      0.0037215409   0.41384053    -0.58260561   
    656000   0.995517       0.0032147862   0.40564919    -0.5788065    
    657000   0.99180185     0.0047501865   0.38520661    -0.59557522   
    658000   0.9452528      0.0046767678   0.39085084    -0.54389915   
    659000   1.0976027      0.0040242657   0.51623207    -0.56917503   
    660000   1.076126       0.0031792601   0.43726138    -0.62690767   
    661000   1.1059435      0.0048913974   0.49263381    -0.60102147   
    662000   1.0207686      0.0036916075   0.35727176    -0.65215495   
    663000   1.0466189      0.0044642065   0.45345646    -0.58153329   
    664000   0.92668254     0.0032981453   0.3101106     -0.60627547   
    665000   0.97515402     0.0028716541   0.36819634    -0.59612264   
    666000   1.0046661      0.0044700839   0.38921135    -0.60429182   
    667000   0.99064346     0.0032137902   0.39203966    -0.58759666   
    668000   0.96713278     0.0045048178   0.37953138    -0.57685548   
    669000   1.0981087      0.0040474866   0.48548583    -0.60042162   
    670000   1.0680533      0.00423238     0.48774932    -0.56843675   
    671000   1.0104406      0.0027568066   0.44754514    -0.55166837   
    672000   0.92107306     0.0043388742   0.33158316    -0.57925576   
    673000   0.93861971     0.003394945    0.33170442    -0.59648619   
    674000   1.0171316      0.0031422176   0.35662471    -0.6492054    
    675000   1.0778337      0.0037663462   0.44929049    -0.61656726   
    676000   1.0608448      0.0027044563   0.41795016    -0.6311075    
    677000   0.94889522     0.0044770795   0.30244553    -0.63590642   
    678000   0.98092959     0.0047873801   0.34169767    -0.6283327    
    679000   0.98759942     0.0035995246   0.3621608     -0.61446529   
    680000   0.9762096      0.0037438014   0.33748541    -0.62787742   
    681000   0.98087049     0.003228503    0.33607581    -0.63389612   
    682000   0.93103363     0.0030110479   0.27474239    -0.64594642   
    683000   1.032104       0.00273694     0.38798699    -0.6326492    
    684000   0.93875348     0.0045570504   0.27687931    -0.65144358   
    685000   1.0232078      0.0033384103   0.34393978    -0.66789901   
    686000   1.0426979      0.003839314    0.39929323    -0.6318191    
    687000   1.016999       0.0057470695   0.36202937    -0.64366965   
    688000   0.99266432     0.0037416169   0.32705817    -0.65457655   
    689000   1.053338       0.0054422462   0.40941323    -0.63222105   
    690000   1.0323748      0.003576266    0.36828906    -0.65261487   
    691000   0.95823209     0.0048532486   0.29105511    -0.65652995   
    692000   0.94781292     0.0039492842   0.27751093    -0.65977074   
    693000   0.91959991     0.0027153806   0.25543103    -0.6539511    
    694000   1.0062891      0.0032264778   0.37465003    -0.62045805   
    695000   0.98146817     0.0036247999   0.33141156    -0.6391514    
    696000   1.0708652      0.0041984462   0.46525697    -0.59370977   
    697000   1.0281836      0.0043664753   0.358239      -0.65852037   
    698000   0.97869405     0.0042813297   0.35908242    -0.60873725   
    699000   1.0622606      0.0043854694   0.44906344    -0.60139429   
    700000   0.99740815     0.0039612916   0.33711118    -0.64921465   
    701000   1.0096751      0.0042375501   0.38815851    -0.61029801   
    702000   0.9968567      0.0041151679   0.39517642    -0.5906041    
    703000   1.0194053      0.0029363907   0.41303946    -0.59503914   
    704000   0.98950898     0.0043263503   0.36102442    -0.61749001   
    705000   0.99357027     0.0038082983   0.3560164     -0.6265142    
    706000   1.0371695      0.0038995006   0.42537694    -0.60026842   
    707000   1.0879348      0.0041396668   0.45995373    -0.61589288   
    708000   0.98435452     0.0039855988   0.34712374    -0.6262935    
    709000   1.0779569      0.0028092673   0.48352906    -0.58245057   
    710000   1.0048042      0.0036937865   0.37898215    -0.61465755   
    711000   0.93642063     0.0041775066   0.34259903    -0.58341693   
    712000   0.93684709     0.0037663548   0.28367827    -0.6427594    
    713000   1.0237787      0.0021326998   0.36080023    -0.65160311   
    714000   1.0300801      0.0039983866   0.3845271     -0.63410763   
    715000   0.98339909     0.0047296754   0.3525976     -0.61987483   
    716000   0.97909806     0.003384936    0.32246157    -0.64575763   
    717000   0.91521518     0.0023035804   0.23612878    -0.66891734   
    718000   0.98662089     0.0047372802   0.34708645    -0.62857198   
    719000   0.93800353     0.004930577    0.35125389    -0.57632738   
    720000   1.0613879      0.0024401778   0.44966397    -0.5999307    
    721000   1.0967642      0.0056707505   0.49497933    -0.58959857   
    722000   0.90367265     0.0035959608   0.30138746    -0.59224439   
    723000   1.0133981      0.0034978046   0.39885442    -0.60328367   
    724000   0.9655435      0.0031402346   0.35397078    -0.60084446   
    725000   1.0024537      0.004425459    0.38298764    -0.60832766   
    726000   0.99119158     0.0052273527   0.36609049    -0.61408785   
    727000   1.0200336      0.0036013751   0.40462713    -0.60407282   
    728000   0.99042333     0.0024943528   0.37964152    -0.59977711   
    729000   1.0293784      0.0036396613   0.37742734    -0.64051349   
    730000   1.0393593      0.002475269    0.4302632     -0.59754763   
    731000   1.001312       0.0042327638   0.41463959    -0.57554668   
    732000   0.92153341     0.0034241671   0.30648681    -0.60480733   
    733000   1.0035         0.0044309463   0.37562944    -0.61672055   
    734000   0.90357828     0.0032679293   0.2875941     -0.60594442   
    735000   1.0147119      0.0046961779   0.42456907    -0.57886821   
    736000   1.1229018      0.0048493233   0.49570163    -0.61472343   
    737000   1.0006411      0.0036769234   0.37473697    -0.61478593   
    738000   0.95009734     0.0025357513   0.30398508    -0.63555563   
    739000   1.0594698      0.0043881209   0.42403387    -0.62366406   
    740000   0.96627303     0.0037402654   0.319054      -0.63648266   
    741000   0.98888423     0.0023886741   0.35839604    -0.61950059   
    742000   1.0101238      0.0033418768   0.39644016    -0.60246005   
    743000   0.99060367     0.0045516839   0.38407004    -0.59552692   
    744000   0.86395377     0.0026461749   0.24976369    -0.6045906    
    745000   0.95801976     0.0042934299   0.35994998    -0.58742511   
    746000   1.0446655      0.0044536816   0.43494983    -0.59810825   
    747000   0.91933925     0.003032803    0.34173973    -0.56738464   
    748000   0.86830213     0.0032894369   0.31803117    -0.54062316   
    749000   1.0157516      0.0050472419   0.44253625    -0.56192925   
    750000   1.0134361      0.0023975706   0.44421314    -0.55796256   
    751000   1.0005951      0.0031353071   0.42058298    -0.56889442   
    752000   1.0419576      0.0040470468   0.41848668    -0.61189358   
    753000   1.0377221      0.0040941625   0.42107179    -0.60512003   
    754000   0.95896662     0.0045414746   0.366602      -0.58170943   
    755000   0.96440509     0.0026048576   0.35602129    -0.59766819   
    756000   0.96203417     0.0030846104   0.38285173    -0.56849317   
    757000   1.0348481      0.0046448199   0.45534503    -0.56800479   
    758000   0.98015776     0.0039303754   0.37337163    -0.59589549   
    759000   0.99324381     0.0031418337   0.41134004    -0.57086773   
    760000   1.0184285      0.0048145881   0.42516107    -0.58195159   
    761000   1.033112       0.0033796257   0.42363701    -0.59799594   
    762000   0.97809599     0.0036601234   0.35121716    -0.61601109   
    763000   1.0404256      0.003550601    0.42786812    -0.60099719   
    764000   0.96773671     0.0032054223   0.3872539     -0.56973018   
    765000   0.96233575     0.0033562323   0.38095009    -0.57069303   
    766000   1.0024987      0.0041268754   0.41600417    -0.57535569   
    767000   0.94008855     0.0026381411   0.33403098    -0.59561214   
    768000   1.0339174      0.0033269278   0.48057774    -0.54185167   
    769000   1.045079       0.0037096083   0.50441277    -0.52905426   
    770000   0.91238097     0.004712023    0.35979449    -0.54244892   
    771000   0.98220657     0.0021823849   0.42298716    -0.54830601   
    772000   0.98852383     0.0040321965   0.4247051     -0.55283513   
    773000   1.0791288      0.0031856152   0.50041793    -0.56672055   
    774000   1.0419827      0.0021600906   0.52448963    -0.50591547   
    775000   1.1582998      0.0041392351   0.64286576    -0.50256401   
    776000   0.94315052     0.0023314507   0.39996859    -0.53270248   
    777000   0.93987976     0.0034101299   0.38212975    -0.54730691   
    778000   0.98031335     0.0043102473   0.45475236    -0.51466862   
    779000   0.97098586     0.0050080216   0.45710559    -0.50309154   
    780000   1.0031343      0.0034919438   0.43514326    -0.55684508   
    781000   1.0003038      0.0052449831   0.44352766    -0.54566164   
    782000   1.085905       0.0044141864   0.53107281    -0.54276654   
    783000   0.93063944     0.0031243234   0.3606439     -0.5596551    
    784000   0.97625929     0.0035123984   0.41086246    -0.55454951   
    785000   1.0200309      0.0045146958   0.4486612     -0.56003605   
    786000   0.96924403     0.0045837498   0.42212035    -0.5363543    
    787000   1.0199212      0.0036901324   0.44332873    -0.56526006   
    788000   1.029646       0.0046410704   0.50038131    -0.51782418   
    789000   1.0950092      0.0045710628   0.53706258    -0.5457799    
    790000   1.1628512      0.0043698601   0.66842951    -0.48150116   
    791000   1.0592207      0.0041048808   0.49869856    -0.54875306   
    792000   1.0396037      0.0032311312   0.50868041    -0.51937217   
    793000   0.96650668     0.0048383645   0.44129049    -0.51447723   
    794000   0.97875437     0.0036448667   0.46525471    -0.50262461   
    795000   0.98428783     0.004750374    0.4821598     -0.49119149   
    796000   1.0588866      0.0039054755   0.50874959    -0.53837161   
    797000   0.99217176     0.0031801034   0.45041541    -0.53073222   
    798000   1.0482026      0.0052337815   0.53631933    -0.50023653   
    799000   1.0119295      0.0033691252   0.44673843    -0.55394737   
    800000   1.0291489      0.0047925976   0.44408684    -0.57362709   
    801000   0.99171995     0.0036904563   0.39592978    -0.58477107   
    802000   1.0511696      0.0036765837   0.46722995    -0.57225998   
    803000   0.91533116     0.0040347599   0.31942271    -0.5857381    
    804000   1.0128835      0.0030493478   0.42752847    -0.57410074   
    805000   1.0947326      0.0035850229   0.55834778    -0.52422115   
    806000   1.0102281      0.0029466287   0.46413259    -0.53487077   
    807000   1.0148988      0.0033539242   0.47902142    -0.52460074   
    808000   1.0513242      0.002759524    0.52486298    -0.5147798    
    809000   1.0830699      0.0029148216   0.50311518    -0.5679206    
    810000   1.0502226      0.0031179457   0.50508868    -0.53346477   
    811000   0.92864158     0.0039388375   0.37074776    -0.54757559   
    812000   1.0037381      0.004032865    0.41718641    -0.57539907   
    813000   1.0668257      0.0042872852   0.51962978    -0.53534231   
    814000   0.93219552     0.0036006362   0.42626062    -0.49557718   
    815000   1.0549511      0.004868188    0.5330834     -0.51014601   
    816000   1.0151194      0.0040563078   0.47206076    -0.5317795    
    817000   0.87375775     0.0028903697   0.31824291    -0.54580643   
    818000   0.94054875     0.0041992823   0.4047679     -0.52533031   
    819000   1.0241467      0.0049563815   0.49177471    -0.52099254   
    820000   1.0257209      0.0049369544   0.50030952    -0.51401444   
    821000   0.97511002     0.0038833332   0.43125998    -0.53301549   
    822000   1.0277375      0.0039899655   0.48888006    -0.52743811   
    823000   1.0254569      0.002918855    0.48516377    -0.5288992    
    824000   0.92565571     0.0034734943   0.36768828    -0.54768237   
    825000   1.0352163      0.0035850451   0.46638764    -0.55732627   
    826000   1.0141102      0.0051116081   0.43581739    -0.56702495   
    827000   0.91447055     0.0043839752   0.34814291    -0.55616686   
    828000   1.0074514      0.0033443854   0.45870914    -0.53754837   
    829000   0.98372871     0.0041777061   0.46058193    -0.51221646   
    830000   1.0124576      0.0033484195   0.43218218    -0.56902585   
    831000   0.89859986     0.0021235085   0.31182829    -0.57678712   
    832000   0.95980382     0.0048197876   0.38298928    -0.56615006   
    833000   1.0611399      0.0044920949   0.48930538    -0.56004405   
    834000   1.0382989      0.0048873684   0.45119329    -0.57556895   
    835000   0.95406947     0.0030346071   0.38754922    -0.55591948   
    836000   0.96504389     0.0041816184   0.40354038    -0.5507808    
    837000   0.99939114     0.004614641    0.42614435    -0.56214244   
    838000   1.0050472      0.0037364465   0.36396445    -0.6299156    
    839000   1.0235832      0.0023130252   0.3999632     -0.61224688   
    840000   1.0045865      0.0036708685   0.37630325    -0.61712119   
    841000   0.99891454     0.0048423902   0.41623149    -0.571584     
    842000   0.94616218     0.0035737069   0.39262278    -0.54302649   
    843000   1.0779035      0.0037113218   0.52446344    -0.54146335   
    844000   0.99620935     0.0051169514   0.44396206    -0.5411783    
    845000   0.92372589     0.0022681994   0.38954432    -0.52391795   
    846000   1.0247844      0.0046705123   0.47405238    -0.5393455    
    847000   0.94698388     0.0033877371   0.40108025    -0.53538158   
    848000   0.99356705     0.0045105312   0.4237119     -0.55881551   
    849000   1.0153564      0.0028165336   0.42617231    -0.57790235   
    850000   1.0370367      0.0040003913   0.44384265    -0.58167144   
    851000   0.95095634     0.0032873239   0.39838169    -0.54200847   
    852000   0.93580945     0.0043543146   0.38701344    -0.53839812   
    853000   0.96318635     0.004507604    0.39436857    -0.5581157    
    854000   0.99521455     0.0035662647   0.4275397     -0.55661691   
    855000   0.84928189     0.0043148621   0.25101835    -0.58882707   
    856000   1.0302287      0.0038104751   0.46901288    -0.54976882   
    857000   1.0088484      0.0043313911   0.43821555    -0.55942341   
    858000   1.0334859      0.0025893533   0.46928788    -0.55271489   
    859000   1.0182039      0.0038847562   0.42969552    -0.57719496   
    860000   0.98492331     0.002627114    0.37974323    -0.59423649   
    861000   0.9695993      0.0039150317   0.4298188     -0.52900717   
    862000   1.0155264      0.0031740283   0.44417889    -0.56006387   
    863000   1.1258563      0.0058438417   0.58131632    -0.5320305    
    864000   1.0009383      0.0032669773   0.41613984    -0.57367688   
    865000   1.0516518      0.0047934023   0.42838838    -0.61157837   
    866000   1.0567352      0.0040284873   0.47178866    -0.57320501   
    867000   0.96980988     0.0041566017   0.35392077    -0.60511344   
    868000   0.95293974     0.0038150602   0.38691478    -0.55543674   
    869000   1.0168112      0.0040850844   0.42345875    -0.58205457   
    870000   1.0019723      0.0034838187   0.39447684    -0.5963624    
    871000   1.0265585      0.0039713121   0.43582455    -0.5793277    
    872000   0.96095233     0.0040077883   0.36627425    -0.58400083   
    873000   1.0160758      0.0031492309   0.46690431    -0.5378818    
    874000   0.97214533     0.0046544008   0.38917779    -0.57216593   
    875000   0.93413899     0.0031280204   0.37494613    -0.54881354   
    876000   0.98570434     0.0031799714   0.3788235     -0.59592857   
    877000   1.0501132      0.0045094323   0.45199224    -0.58645304   
    878000   1.0214652      0.0041168991   0.42337923    -0.58673631   
    879000   0.99436858     0.0028043253   0.40836089    -0.57495916   
    880000   0.99190035     0.0029814731   0.42549041    -0.55538883   
    881000   0.97520452     0.0029701943   0.42719782    -0.53717109   
    882000   0.99996853     0.0038133094   0.43153502    -0.55732274   
    883000   1.0032818      0.0031475976   0.42918336    -0.56295088   
    884000   1.0314592      0.0029395747   0.41760676    -0.60239179   
    885000   1.0843053      0.0025486781   0.46474377    -0.6075137    
    886000   0.98966534     0.0049907661   0.35649875    -0.62217031   
    887000   1.0905545      0.0032368701   0.47746593    -0.60097127   
    888000   0.92255275     0.004304267    0.35996994    -0.55233223   
    889000   1.0584001      0.0045344723   0.47261432    -0.57402576   
    890000   0.95925915     0.0031305648   0.32989504    -0.61870567   
    891000   0.96719138     0.0030248724   0.34998667    -0.60645814   
    892000   1.0181438      0.0049879433   0.41122068    -0.59561039   
    893000   0.98473474     0.0033213286   0.37398013    -0.59981312   
    894000   1.0023822      0.0033824984   0.4209864     -0.57025821   
    895000   0.87955182     0.0026032641   0.3077011     -0.56207792   
    896000   1.0609834      0.0037645081   0.4823718     -0.56682286   
    897000   0.98250605     0.0052425715   0.44564233    -0.52594699   
    898000   1.0194823      0.0029771891   0.45807177    -0.55008298   
    899000   0.83472384     0.0020367837   0.28843824    -0.5370109    
    900000   0.97101006     0.0032186039   0.43543092    -0.52479015   
    901000   0.99055697     0.00457908     0.46557864    -0.51397214   
    902000   0.94314773     0.0041699887   0.40175941    -0.5309089    
    903000   0.98184286     0.0036175759   0.43301838    -0.53791512   
    904000   0.96876435     0.0037101256   0.44436307    -0.51363723   
    905000   0.93713677     0.0035711014   0.3921532     -0.53457094   
    906000   1.0267887      0.0028797979   0.49348069    -0.52189925   
    907000   1.0383682      0.0035218564   0.47547088    -0.5513599    
    908000   1.0060148      0.0041271099   0.45465192    -0.54018495   
    909000   0.97898321     0.0037178605   0.45674993    -0.51135569   
    910000   1.0139148      0.0037560795   0.46487686    -0.53777222   
    911000   1.0312511      0.0036790637   0.49640043    -0.52339233   
    912000   1.177049       0.0034306352   0.60539413    -0.55857657   
    913000   1.0197899      0.0031584985   0.45230127    -0.55615759   
    914000   1.0479409      0.0036544039   0.5212866     -0.51501053   
    915000   1.0118705      0.0034518911   0.45458818    -0.54603933   
    916000   1.0424287      0.0041247429   0.47224647    -0.55859966   
    917000   0.97518541     0.0040600898   0.40913612    -0.5552139    
    918000   0.91038665     0.0046555915   0.35365889    -0.54661236   
    919000   0.96371587     0.0018959516   0.37008974    -0.58291818   
    920000   1.0050582      0.0051193339   0.41392441    -0.57996646   
    921000   1.0168164      0.0036422432   0.44622065    -0.55929777   
    922000   0.97001852     0.0025571957   0.37825061    -0.58098993   
    923000   0.96898197     0.0030702631   0.40802754    -0.55018797   
    924000   0.97725691     0.0026504346   0.41843957    -0.54795894   
    925000   0.93902041     0.0040342031   0.36910625    -0.5594806    
    926000   0.9784308      0.004103039    0.3941957     -0.57336365   
    927000   0.98914312     0.003025757    0.39735541    -0.58079724   
    928000   0.96198051     0.0041652861   0.40231777    -0.54897407   
    929000   1.0711685      0.0048531066   0.54149194    -0.51777468   
    930000   0.98210728     0.0030563703   0.45540889    -0.51578609   
    931000   0.94651657     0.0039271439   0.46482903    -0.47117069   
    932000   1.0942688      0.0037377512   0.54899376    -0.53311648   
    933000   1.074622       0.0050616907   0.55560801    -0.50707371   
    934000   1.0546087      0.0039686797   0.52384768    -0.51904315   
    935000   0.96361484     0.0030597783   0.43336138    -0.51954663   
    936000   1.0409381      0.0027206497   0.50115408    -0.52821804   
    937000   1.0469437      0.0037014107   0.53732324    -0.49798775   
    938000   1.0597355      0.0043619449   0.51801706    -0.5299436    
    939000   1.0058107      0.0039645195   0.45603375    -0.53860124   
    940000   0.97790029     0.0040858823   0.43055083    -0.53648391   
    941000   0.95910875     0.0037525098   0.41275581    -0.53569617   
    942000   1.0224564      0.0049501933   0.48414915    -0.52694665   
    943000   0.92737054     0.0040561613   0.41921817    -0.49784825   
    944000   0.99969949     0.0038665273   0.4606681     -0.52792362   
    945000   1.025761       0.0034666721   0.49954858    -0.51481507   
    946000   1.1474364      0.0051170096   0.56586401    -0.56882314   
    947000   0.94443328     0.0043995677   0.38055659    -0.55338299   
    948000   1.0835137      0.0036481395   0.52906668    -0.54240798   
    949000   1.0492876      0.0043460404   0.49918491    -0.53844395   
    950000   1.0664018      0.0044054061   0.51250037    -0.54205253   
    951000   0.97892365     0.0033126073   0.39444601    -0.57360071   
    952000   1.0081954      0.0034855146   0.42365486    -0.57333833   
    953000   1.0345578      0.0030243579   0.47423605    -0.54882665   
    954000   1.0673366      0.005327401    0.50263505    -0.55284227   
    955000   0.99640931     0.003305841    0.47608309    -0.50925501   
    956000   0.94775395     0.0024613659   0.41144794    -0.52577541   
    957000   0.97527991     0.0032677832   0.43910276    -0.52534071   
    958000   0.95549627     0.0021990607   0.41031602    -0.53456362   
    959000   1.0113356      0.0030500888   0.47818508    -0.52191346   
    960000   0.99006006     0.0032411478   0.44275674    -0.53630266   
    961000   1.0502253      0.0041366778   0.53085632    -0.50769986   
    962000   1.0263948      0.0032669346   0.48492413    -0.53006633   
    963000   1.0441194      0.0044659019   0.48948426    -0.54303377   
    964000   1.0297552      0.0027366275   0.47303164    -0.54528183   
    965000   1.0292019      0.003510029    0.4779161     -0.53985023   
    966000   1.0646874      0.0040507556   0.510242      -0.54261554   
    967000   1.0314375      0.0036680319   0.47011709    -0.54986003   
    968000   0.95460941     0.004004729    0.36415087    -0.57985176   
    969000   1.0437319      0.0038868013   0.45759757    -0.57453734   
    970000   1.1481684      0.0044358978   0.57254179    -0.56286914   
    971000   1.044793       0.0038582109   0.4962608     -0.53692339   
    972000   0.97384107     0.0044292154   0.42351627    -0.53950435   
    973000   1.060191       0.0036468825   0.52609386    -0.5223172    
    974000   1.0043183      0.0029408712   0.44120849    -0.55195075   
    975000   0.97202099     0.0031812335   0.39412859    -0.56709217   
    976000   1.0631647      0.0036396147   0.48663376    -0.56471797   
    977000   0.99948133     0.0026214052   0.43866438    -0.5497116    
    978000   0.96006724     0.003981558    0.37655245    -0.57284738   
    979000   0.94634064     0.003239497    0.38906956    -0.54675618   
    980000   1.0064302      0.0039012839   0.42167507    -0.57357254   
    981000   0.86559519     0.0033100119   0.28930629    -0.56667118   
    982000   1.0372106      0.002795822    0.48326594    -0.54242008   
    983000   1.0109016      0.0040010043   0.4790388     -0.52063058   
    984000   0.99758679     0.002949182    0.46513565    -0.52136684   
    985000   1.0434284      0.0050532805   0.53075437    -0.5010804    
    986000   1.0630085      0.0047701546   0.51858269    -0.53261463   
    987000   1.0240108      0.0037479648   0.51207176    -0.50056113   
    988000   0.99246918     0.0044730661   0.46449738    -0.51694436   
    989000   0.98718933     0.0044258244   0.46875639    -0.50746418   
    990000   1.0106142      0.0041774913   0.50537775    -0.49400745   
    991000   0.87582168     0.0022362475   0.35367293    -0.5124174    
    992000   1.0058513      0.0035368579   0.47937587    -0.51529929   
    993000   1.017572       0.0044240922   0.46512387    -0.54114178   
    994000   1.0324798      0.0031100804   0.47551738    -0.54549039   
    995000   1.0547895      0.004106098    0.50446259    -0.53860705   
    996000   1.0487332      0.0032206529   0.50757095    -0.52950963   
    997000   1.0215923      0.0038510147   0.48149232    -0.52874896   
    998000   1.0228071      0.0034639199   0.50377998    -0.50766263   
    999000   1.0354273      0.0038043008   0.47612686    -0.5477957    
   1000000   1.0256765      0.0043674203   0.47739526    -0.5368848    
Loop time of 18.0081 on 1 procs for 1000000 steps with 405 atoms

Performance: 47978486.535 tau/day, 55530.656 timesteps/s
99.6% CPU use with 1 MPI tasks x no OpenMP threads

MPI task timing breakdown:
Section |  min time  |  avg time  |  max time  |%varavg| %total
---------------------------------------------------------------
Pair    | 1.5026     | 1.5026     | 1.5026     |   0.0 |  8.34
Bond    | 0.041407   | 0.041407   | 0.041407   |   0.0 |  0.23
Neigh   | 3.7105     | 3.7105     | 3.7105     |   0.0 | 20.60
Comm    | 0.83913    | 0.83913    | 0.83913    |   0.0 |  4.66
Output  | 0.31854    | 0.31854    | 0.31854    |   0.0 |  1.77
Modify  | 10.297     | 10.297     | 10.297     |   0.0 | 57.18
Other   |            | 1.299      |            |       |  7.21

Nlocal:            405 ave         405 max         405 min
Histogram: 1 0 0 0 0 0 0 0 0 0
Nghost:             58 ave          58 max          58 min
Histogram: 1 0 0 0 0 0 0 0 0 0
Neighs:             85 ave          85 max          85 min
Histogram: 1 0 0 0 0 0 0 0 0 0

Total # of neighbors = 85
Ave neighs/atom = 0.20987654
Ave special neighs/atom = 0
Neighbor list builds = 212367
Dangerous builds = 0
Total wall time: 0:00:18
