fix fLANG all langevin 1.0 1.0 1.0 100
neigh_modify exclude molecule/intra all
fix rigidNVE linked_vesicle rigid/nve molecule
  1 rigid bodies with 5 atoms
fix NVE synapsin nve 1.0 1.0 1.0

    ##======================================##
    ## Output
    ##======================================##

thermo 1000
thermo_style custom step temp press etotal epair
thermo_modify flush yes
timestep 0.01

    ##======================================##
    ## Equilibration before output
    ##======================================##


    ##======================================##
    ## Run with output
    ##======================================##

fix enforce_2d all enforce2d
dump 2 all custom 1000 Results_eps_attr6_eps_rep1_eps_rep_weak0_range2_attr_with_repFalse_n_synapsin600_n_vesicles1/Movie_2d_eps_attr6_eps_rep1_eps_rep_weak0_range2_attr_with_repFalse_n_synapsin600_n_vesicles1.xyz id type mol x y z
run 1000000
Generated 0 of 3 mixed pair_coeff terms from geometric mixing rule
Neighbor list info ...
  update every 1 steps, delay 1 steps, check yes
  max neighbors/atom: 2000, page size: 100000
  master list distance cutoff = 11.52462
  ghost atom cutoff = 11.52462
  binsize = 5.7623102, bins = 55 55 1
  1 neighbor lists, perpetual/occasional/extra = 1 0 0
  (1) pair cosine/squared, perpetual
      attributes: half, newton on
      pair build: half/bin/newton
      stencil: half/bin/2d
      bin: standard
Per MPI rank memory allocation (min/avg/max) = 8.538 | 8.538 | 8.538 Mbytes
   Step          Temp          Press          TotEng         E_pair    
         0   0.99605013    -0.012465183    0.98864149     0            
      1000   0.98155981     0.0065284662   0.96437465    -0.0098843058 
      2000   1.0301148      0.0063428754   1.0042621     -0.018190644  
      3000   1.064445       0.0061197478   1.0389517     -0.017575985  
      4000   0.97296582     0.0050426284   0.94633585    -0.019393039  
      5000   0.99659409     0.0056667272   0.97061247    -0.018568937  
      6000   1.0131322      0.0060260668   0.9911952     -0.014401337  
      7000   0.94943315     0.0051171505   0.91332791    -0.029043342  
      8000   1.0099899      0.0064935023   0.9766176     -0.025859998  
      9000   0.96319958     0.0056819276   0.93317057    -0.022864715  
     10000   0.95957134     0.0049467661   0.92838339    -0.024050637  
     11000   1.0185331      0.00694159     0.97501058    -0.035946609  
     12000   0.99729497     0.0053196105   0.95882982    -0.031047255  
     13000   1.000837       0.0059444903   0.95415782    -0.03923493   
     14000   0.98286245     0.0066189011   0.9400143     -0.0355376    
     15000   0.98672267     0.0055719593   0.93521599    -0.044167415  
     16000   0.93152583     0.0048857933   0.88761083    -0.036986296  
     17000   1.0734963      0.0060851207   1.019435      -0.046076646  
     18000   0.91472259     0.0050728145   0.82469725    -0.083221617  
     19000   0.93925792     0.0055214864   0.86351451    -0.068757196  
     20000   1.0447743      0.0060403603   0.95100987    -0.085993381  
     21000   0.93112241     0.0055723784   0.83928506    -0.084911644  
     22000   0.95438957     0.0064845302   0.85533729    -0.091953512  
     23000   0.98567571     0.0070656022   0.88492544    -0.093418802  
     24000   0.94502511     0.0065128582   0.84413408    -0.093861921  
     25000   1.0459547      0.005511852    0.95386602    -0.084308864  
     26000   0.93975637     0.0060135159   0.84370546    -0.089060985  
     27000   1.0497826      0.0073429689   0.94515895    -0.09681537   
     28000   1.0196592      0.0071790801   0.90326386    -0.10881105   
     29000   1.0297144      0.0055371748   0.91351507    -0.10854029   
     30000   1.0141473      0.0053877473   0.89877053    -0.10783352   
     31000   1.0216691      0.0072207479   0.9194146     -0.094655336  
     32000   1.0433961      0.0062054574   0.95397875    -0.081656512  
     33000   0.99346763     0.0063036178   0.88418878    -0.10188942   
     34000   1.0031154      0.0070345044   0.89805097    -0.097603248  
     35000   1.0638933      0.0058962096   0.95513481    -0.10084527   
     36000   0.93961957     0.0060888575   0.84583573    -0.086794938  
     37000   1.0126043      0.0056907236   0.9211649     -0.083907626  
     38000   1.0191006      0.0050617827   0.91659827    -0.094922267  
     39000   1.0073077      0.0061135907   0.90704734    -0.092767988  
     40000   1.0306729      0.0053691093   0.94416473    -0.078842008  
     41000   1.0554436      0.0072721994   0.94933924    -0.098253935  
     42000   0.89913669     0.0049925008   0.81005911    -0.08238979   
     43000   0.96192111     0.005695022    0.87101879    -0.083747535  
     44000   1.0439186      0.0058373417   0.9354101     -0.10074383   
     45000   1.0859898      0.0063157294   0.97533217    -0.10258001   
     46000   0.95469918     0.0050227915   0.8520656     -0.09553251   
     47000   0.97031927     0.0061903042   0.86749489    -0.095607129  
     48000   0.97209919     0.005344169    0.87524818    -0.089620527  
     49000   1.0219816      0.0059412037   0.91726865    -0.097111484  
     50000   0.92894834     0.006026087    0.82708919    -0.094949616  
     51000   1.0388451      0.006523831    0.9328079     -0.098310277  
     52000   0.94736931     0.005506005    0.84353732    -0.096785436  
     53000   1.0186858      0.0060564734   0.92235509    -0.088753691  
     54000   1.0138094      0.005272392    0.9057295     -0.10053914   
     55000   1.0045377      0.0063491761   0.8925621     -0.10450386   
     56000   0.94078176     0.0059173542   0.82347888    -0.11030533   
     57000   1.0265869      0.0063075091   0.91737463    -0.10157651   
     58000   0.94101203     0.0062314386   0.82328368    -0.11072909   
     59000   1.0244339      0.0062101048   0.92365165    -0.093162452  
     60000   0.98217566     0.0065463419   0.87354649    -0.10132373   
     61000   0.98674452     0.0074487562   0.87825226    -0.10115284   
     62000   0.99927073     0.0066178248   0.88797632    -0.10386182   
     63000   0.96910114     0.0061793329   0.8467033     -0.11518965   
     64000   1.0298028      0.0060592924   0.914806      -0.10733711   
     65000   1.0289571      0.0064687278   0.9148216     -0.10648213   
     66000   0.96536196     0.0064240085   0.85101506    -0.10716653   
     67000   1.0511452      0.0067422582   0.94113557    -0.10219119   
     68000   0.94611181     0.0059439587   0.8152603     -0.12381432   
     69000   0.97505441     0.0057883386   0.84123782    -0.12656412   
     70000   1.0047239      0.0066060102   0.8742605     -0.12299027   
     71000   0.98540473     0.0053393117   0.8594829     -0.11859237   
     72000   1.039884       0.0061836765   0.92153001    -0.11061931   
     73000   1.0372577      0.0069269738   0.91242758    -0.11711498   
     74000   0.98725424     0.00700406     0.86426866    -0.11564236   
     75000   0.93066616     0.0056409871   0.81578539    -0.10795846   
     76000   1.0141705      0.0051747852   0.8887007     -0.11792636   
     77000   0.93876587     0.0059338718   0.82437157    -0.10741175   
     78000   0.99902974     0.0059636948   0.8760026     -0.11559634   
     79000   0.97634587     0.0063016038   0.84299968    -0.12608411   
     80000   1.0315578      0.0066836604   0.8915583     -0.13232675   
     81000   0.96688263     0.0055523783   0.84391461    -0.11577633   
     82000   0.9797081      0.005650629    0.86954632    -0.10287469   
     83000   0.97556029     0.0048633905   0.8554977     -0.11280636   
     84000   1.0548362      0.0061394301   0.92430038    -0.12268992   
     85000   0.93751427     0.0060743418   0.8114709     -0.11907013   
     86000   0.92663988     0.0049234678   0.81227373    -0.10747379   
     87000   0.94656359     0.0059884252   0.82453557    -0.11498747   
     88000   1.0140756      0.0058540923   0.89673918    -0.10979374   
     89000   1.0061085      0.0057372024   0.88555903    -0.11306604   
     90000   0.98688892     0.005888696    0.87605849    -0.10348994   
     91000   1.0324329      0.0064443427   0.91440672    -0.11034696   
     92000   1.0315935      0.0062509209   0.90532132    -0.11859916   
     93000   0.97958938     0.0066891392   0.87047472    -0.10182846   
     94000   1.0024743      0.0058355448   0.88215398    -0.11286389   
     95000   1.0243322      0.0060013496   0.90507093    -0.1116423    
     96000   0.9762461      0.0058455766   0.85785155    -0.11113321   
     97000   1.0029693      0.0062393311   0.88695769    -0.10855147   
     98000   0.98670463     0.0055783015   0.8622813     -0.11708421   
     99000   0.98747158     0.0064718115   0.84876847    -0.13135829   
    100000   1.0155023      0.0054161643   0.88227936    -0.12566959   
    101000   1.0291901      0.0069094975   0.89879246    -0.12274248   
    102000   1.0346638      0.0066894846   0.91100804    -0.11595988   
    103000   0.98661069     0.0062302288   0.84753036    -0.1317419    
    104000   0.97634749     0.0054271908   0.82753615    -0.14154926   
    105000   1.0236671      0.00541806     0.87646916    -0.13958384   
    106000   1.0253412      0.0065160142   0.88173858    -0.13597614   
    107000   0.92673843     0.0056144981   0.78800706    -0.13183827   
    108000   0.94558848     0.0051059268   0.80062487    -0.13793031   
    109000   0.98551529     0.0073417001   0.85692829    -0.12125672   
    110000   1.0269512      0.0059191661   0.89709379    -0.12221893   
    111000   1.0011913      0.0063743241   0.85655466    -0.13718977   
    112000   0.96133043     0.0053321372   0.82170394    -0.1324761    
    113000   1.0043409      0.0064926618   0.8603646     -0.13650599   
    114000   1.002458       0.0058956604   0.87019182    -0.12480992   
    115000   1.0319873      0.0062947663   0.90451856    -0.11979279   
    116000   1.0223853      0.0078153066   0.89158226    -0.12319848   
    117000   1.0212678      0.0064325133   0.89339663    -0.12027492   
    118000   1.0014869      0.0059866419   0.88167578    -0.11236203   
    119000   1.0006768      0.0058984511   0.86052774    -0.13270601   
    120000   1.0212143      0.0057878139   0.87872184    -0.13489662   
    121000   1.0184099      0.006895288    0.89072509    -0.12010986   
    122000   1.0565716      0.0067787682   0.91205147    -0.13666132   
    123000   1.0375362      0.0068028344   0.90292198    -0.12689699   
    124000   0.98731659     0.0057285159   0.85195899    -0.12801392   
    125000   0.95686531     0.0058841749   0.83495282    -0.1147953    
    126000   1.0424307      0.0058770337   0.9227998     -0.11187729   
    127000   0.9961994      0.0058645075   0.86385701    -0.12493264   
    128000   0.9933068      0.0048352193   0.84712426    -0.13879431   
    129000   0.96353141     0.0059845607   0.83411316    -0.12225149   
    130000   1.0116965      0.006797998    0.87226221    -0.13190928   
    131000   1.0864505      0.0061808696   0.96592802    -0.11244146   
    132000   0.9806978      0.0058778943   0.85619758    -0.11720578   
    133000   0.99161035     0.0058181565   0.85427483    -0.1299599    
    134000   1.011862       0.00544314     0.89512316    -0.10921255   
    135000   1.0952356      0.0067247208   0.95112241    -0.13596677   
    136000   0.99699469     0.0065757125   0.85081803    -0.13876099   
    137000   1.0343095      0.0056781454   0.88937446    -0.13724186   
    138000   1.0084401      0.0063250806   0.85637947    -0.1445598    
    139000   0.96563059     0.0049573668   0.81972134    -0.13872687   
    140000   1.0223843      0.0062299745   0.88435728    -0.13042248   
    141000   0.98323424     0.0066100526   0.82870088    -0.14722005   
    142000   1.0134627      0.005397858    0.87750999    -0.12841454   
    143000   1.0842031      0.0069318006   0.95279506    -0.12334374   
    144000   0.99562622     0.0069967249   0.84162286    -0.14659788   
    145000   0.98379888     0.0061716039   0.83685849    -0.13962288   
    146000   0.93923162     0.0060970897   0.80450989    -0.12773571   
    147000   0.98145868     0.0056942886   0.85329964    -0.12085894   
    148000   0.94458103     0.0056455569   0.7990154     -0.13853982   
    149000   1.0033691      0.0052699417   0.85054827    -0.14535772   
    150000   0.95414039     0.0057385367   0.81097819    -0.13606529   
    151000   1.0183973      0.0062106415   0.88665377    -0.12416865   
    152000   1.0652378      0.0065747641   0.92297477    -0.13433979   
    153000   0.95867869     0.0062906882   0.81193545    -0.13961258   
    154000   1.0101747      0.006108109    0.89075491    -0.11190605   
    155000   0.93330591     0.0049235121   0.80959562    -0.11676835   
    156000   1.0243489      0.0049884839   0.90125758    -0.1154722    
    157000   1.018018       0.0071230167   0.88682663    -0.12361932   
    158000   1.0345181      0.0064480125   0.90676656    -0.12005678   
    159000   0.93151917     0.005545365    0.79354007    -0.13105044   
    160000   1.0390918      0.0058963616   0.89256995    -0.13879302   
    161000   1.0020199      0.004584873    0.86716342    -0.12740346   
    162000   0.95397265     0.0061834672   0.83206675    -0.11481024   
    163000   0.96180462     0.0058593215   0.8214483     -0.1332024    
    164000   0.99656152     0.0062765102   0.86218641    -0.12696267   
    165000   0.97392998     0.0051221774   0.82155243    -0.14513344   
    166000   0.96426831     0.006316795    0.80745859    -0.14963747   
    167000   0.98212514     0.005226728    0.8213858     -0.15343428   
    168000   1.073904       0.0063438508   0.91841287    -0.14750346   
    169000   0.96341157     0.0063115216   0.80715408    -0.14909161   
    170000   0.98366015     0.0059776985   0.82907558    -0.14726809   
    171000   0.9673473      0.0052661392   0.81771098    -0.14244118   
    172000   1.0335403      0.006686519    0.86340842    -0.16244435   
    173000   1.0048514      0.0065714055   0.84166168    -0.15571557   
    174000   1.001675       0.0057190888   0.8325225     -0.161702     
    175000   0.92342952     0.004403623    0.73822271    -0.17833833   
    176000   0.98725611     0.0058965823   0.79985513    -0.18005775   
    177000   1.0480444      0.0059760165   0.85694575    -0.18330331   
    178000   0.97526825     0.0054013748   0.77342852    -0.19458567   
    179000   1.0303214      0.0062707101   0.85180063    -0.17085725   
    180000   0.99700574     0.0059540335   0.7968525     -0.1927375    
    181000   1.0364833      0.0057673844   0.84808322    -0.18069074   
    182000   1.0868944      0.0075329307   0.89613803    -0.18267202   
    183000   1.0241148      0.0063375776   0.84267086    -0.17382656   
    184000   1.0485126      0.0060633107   0.8507381     -0.18997566   
    185000   1.0412649      0.00658096     0.84108872    -0.19243123   
    186000   0.98412518     0.0059756392   0.79293803    -0.18386721   
    187000   0.99260226     0.0057185464   0.78341799    -0.20180127   
    188000   1.0466473      0.0054946004   0.85488318    -0.18397917   
    189000   1.0043009      0.0052711833   0.82079655    -0.17603435   
    190000   1.0065501      0.0048756037   0.82746916    -0.17159415   
    191000   1.0050994      0.0054878013   0.83814518    -0.15947831   
    192000   1.0465323      0.0062433068   0.87191646    -0.16683167   
    193000   1.0162943      0.0068506588   0.86233648    -0.14639861   
    194000   0.98752858     0.0062180157   0.8230916     -0.15709173   
    195000   0.9960444      0.0067024395   0.8392326     -0.1494032    
    196000   1.0311468      0.0055547324   0.86425587    -0.15922127   
    197000   1.0326251      0.0056149199   0.89923734    -0.12570708   
    198000   1.0769945      0.0064188758   0.92635458    -0.14262917   
    199000   1.0213583      0.0059087849   0.87267748    -0.14108391   
    200000   0.93950522     0.0062114197   0.79093746    -0.1415797    
    201000   1.01062        0.0064990943   0.85326497    -0.14983805   
    202000   0.99997306     0.0065235908   0.81581845    -0.17671679   
    203000   1.0221511      0.0059131805   0.84965396    -0.16489434   
    204000   1.0119516      0.0055282569   0.85100762    -0.15341707   
    205000   1.0406338      0.0066973685   0.85627509    -0.17661844   
    206000   0.94865147     0.0050787004   0.78093805    -0.16065733   
    207000   1.0126028      0.0058420199   0.83792209    -0.16714895   
    208000   1.0022037      0.0060653847   0.81858003    -0.17616928   
    209000   1.0403658      0.0059088273   0.85918523    -0.17344227   
    210000   0.99518823     0.0054915411   0.80711264    -0.18067336   
    211000   0.9961184      0.0060871157   0.79068932    -0.19801993   
    212000   1.0077563      0.0059371615   0.82235332    -0.17790724   
    213000   1.0132212      0.0062607202   0.8095471     -0.19613773   
    214000   1.0273291      0.0057329826   0.84742221    -0.17226558   
    215000   1.0187854      0.0055094318   0.81547453    -0.19573312   
    216000   1.0276675      0.0051303941   0.82080409    -0.19921959   
    217000   0.98130344     0.006205507    0.77590021    -0.19810428   
    218000   1.0429744      0.0059866682   0.85555193    -0.17966479   
    219000   1.0900329      0.0066969487   0.91112504    -0.17080014   
    220000   0.9082725      0.0047409131   0.72833658    -0.17318017   
    221000   1.0177902      0.0066109717   0.82747648    -0.18274337   
    222000   1.0078908      0.0057486944   0.81895172    -0.18144237   
    223000   0.99762474     0.0061635663   0.77530355    -0.21490084   
    224000   0.97765888     0.0063604543   0.77071413    -0.19967291   
    225000   1.0381977      0.0058964155   0.82216381    -0.20831176   
    226000   1.0289123      0.0061604122   0.83647801    -0.18478123   
    227000   0.94390548     0.0052179279   0.72470261    -0.21218209   
    228000   0.99329037     0.0054993672   0.77343142    -0.21247084   
    229000   0.98550933     0.005639734    0.75137505    -0.22680405   
    230000   1.046095       0.0066016874   0.80534942    -0.23296473   
    231000   1.0037806      0.0056660067   0.76100681    -0.23530768   
    232000   1.0232258      0.0063980706   0.7982094     -0.21740567   
    233000   1.0410773      0.0068081228   0.81113242    -0.22220136   
    234000   1.0371295      0.0069520983   0.80887193    -0.22054339   
    235000   1.033226       0.0062683399   0.80881383    -0.21672703   
    236000   1.0463055      0.006301866    0.82160581    -0.21691729   
    237000   0.99088315     0.0051369268   0.77345763    -0.21005532   
    238000   0.99231951     0.0064160397   0.78614952    -0.1987891    
    239000   0.99382382     0.0056926944   0.82146347    -0.16496828   
    240000   0.96885463     0.0058392224   0.76961241    -0.19203586   
    241000   1.001217       0.0054073577   0.79285597    -0.20091399   
    242000   0.9576362      0.0055517886   0.76454844    -0.18596485   
    243000   1.0367987      0.0050757539   0.84519213    -0.18389487   
    244000   0.99083206     0.0058783992   0.81424384    -0.1692184    
    245000   0.95073246     0.005520403    0.76333097    -0.18032993   
    246000   1.0233997      0.0058658504   0.82427589    -0.19151175   
    247000   0.99134032     0.0058759594   0.82335835    -0.16060837   
    248000   0.97486545     0.0051886403   0.79380408    -0.1738103    
    249000   0.93672893     0.0055699595   0.78047467    -0.14928685   
    250000   1.0524166      0.0063998513   0.89845582    -0.14613293   
    251000   1.0034008      0.0059138947   0.8473536     -0.1485839    
    252000   0.96152824     0.0054404059   0.79197698    -0.16239939   
    253000   1.0089425      0.0064439161   0.84993731    -0.15150062   
    254000   0.99631379     0.0054427193   0.82638299    -0.16252021   
    255000   1.0583697      0.0055721649   0.89399281    -0.15650471   
    256000   1.0060783      0.0047882621   0.83235405    -0.16624102   
    257000   0.96499445     0.0055039229   0.79539038    -0.16242643   
    258000   1.0031477      0.0058866155   0.84325655    -0.15242974   
    259000   1.0338837      0.0055638261   0.85084118    -0.17535252   
    260000   0.91576671     0.0053859542   0.7573978     -0.15155742   
    261000   1.0235108      0.0064771714   0.85173686    -0.16416108   
    262000   0.97023486     0.0055268816   0.79265692    -0.17036132   
    263000   1.0441465      0.006486451    0.86644915    -0.16993093   
    264000   0.94582391     0.0057975553   0.76044546    -0.1783434    
    265000   1.0140786      0.0048768076   0.8109701     -0.19556581   
    266000   0.99974115     0.006620713    0.80261521    -0.18968985   
    267000   0.99676537     0.0057937011   0.79848166    -0.19086975   
    268000   1.0250023      0.0060881152   0.84565428    -0.17172406   
    269000   1.0428809      0.0065844176   0.84793872    -0.18718519   
    270000   1.0486338      0.0069189069   0.85770885    -0.18312515   
    271000   1.0431114      0.0059759154   0.8568041     -0.17854864   
    272000   0.98281999     0.0061852685   0.79871126    -0.1767985    
    273000   1.0156737      0.0051921877   0.84638554    -0.16173358   
    274000   1.012141       0.0058960416   0.81324346    -0.1913692    
    275000   0.91574515     0.0057143037   0.73181366    -0.17712016   
    276000   0.99887209     0.0061270588   0.82477482    -0.16666765   
    277000   1.0513418      0.0056934464   0.85588943    -0.1876325    
    278000   0.94485621     0.0052546517   0.77410825    -0.16372011   
    279000   0.98042283     0.0065185447   0.79075102    -0.1823794    
    280000   1.0943487      0.006718213    0.91603366    -0.17017523   
    281000   1.0466416      0.0071148117   0.85917576    -0.17968094   
    282000   1.0458043      0.005993851    0.87359638    -0.16442919   
    283000   1.0021014      0.005251771    0.83144317    -0.16320456   
    284000   0.94480007     0.0059255646   0.75782438    -0.17994826   
    285000   0.99192244     0.0053605566   0.81598873    -0.16855578   
    286000   0.92543772     0.0066445247   0.74650809    -0.17204622   
    287000   1.0003232      0.0055093736   0.83495474    -0.15792806   
    288000   0.94339163     0.0059171154   0.76478151    -0.17159316   
    289000   1.0001309      0.0061215044   0.82434963    -0.16834231   
    290000   1.0136309      0.0053983916   0.83638908    -0.16970242   
    291000   0.99649969     0.0063651532   0.81099181    -0.1780959    
    292000   1.0655163      0.0053419097   0.87410456    -0.18348639   
    293000   0.96484797     0.0049936472   0.76053295    -0.19713846   
    294000   1.0171157      0.0065322025   0.82959544    -0.17995489   
    295000   0.99314894     0.0055273744   0.78775955    -0.19800233   
    296000   0.95724512     0.0059898284   0.77421817    -0.17590694   
    297000   0.95080044     0.0061519094   0.75179536    -0.19193301   
    298000   1.0580216      0.0060305277   0.87456578    -0.17558621   
    299000   1.0546069      0.0066192701   0.88749225    -0.15927047   
    300000   0.96561359     0.0062977912   0.78454498    -0.17388636   
    301000   1.0247498      0.005656084    0.82799732    -0.18913035   
    302000   1.0322363      0.0065262811   0.83506385    -0.18949469   
    303000   0.94357145     0.0046970614   0.73895682    -0.19759633   
    304000   0.97553494     0.0060536222   0.77093069    -0.1973482    
    305000   0.93944144     0.0054618974   0.75679802    -0.17565583   
    306000   0.91522317     0.0045287152   0.73934542    -0.1690703    
    307000   0.95721136     0.0067696829   0.75164292    -0.19844868   
    308000   0.972          0.0068710494   0.75819843    -0.20657182   
    309000   0.95790853     0.004635077    0.76877764    -0.18200595   
    310000   0.9742982      0.0054064493   0.78833749    -0.17871386   
    311000   0.97286604     0.0049920285   0.7696939     -0.19593595   
    312000   0.97474312     0.0040482287   0.7567278     -0.21076517   
    313000   0.96845341     0.0044178765   0.76678361    -0.19446642   
    314000   1.1101729      0.0067081133   0.92774387    -0.1741715    
    315000   1.0684038      0.0063708193   0.85909716    -0.20135981   
    316000   1.0377816      0.0067386331   0.8329597     -0.19710283   
    317000   0.99823417     0.006291654    0.8005881     -0.19022119   
    318000   0.9961218      0.0052974895   0.78770191    -0.20101071   
    319000   0.9799002      0.006288279    0.75087596    -0.22173572   
    320000   0.97232554     0.0057395645   0.74610342    -0.21898994   
    321000   1.0581665      0.0059161041   0.8675888     -0.18270702   
    322000   0.9740451      0.0042247199   0.7806643     -0.18613583   
    323000   0.96845103     0.0057885612   0.74232693    -0.21892075   
    324000   0.99396181     0.0065453683   0.78723186    -0.19933685   
    325000   0.95180886     0.0049597491   0.75131756    -0.19341174   
    326000   1.0349092      0.0062902469   0.83036341    -0.19684808   
    327000   0.95213602     0.00592547     0.7412623     -0.20379172   
    328000   0.98775382     0.0066879893   0.77290562    -0.20750128   
    329000   1.0458825      0.0069694934   0.82738807    -0.21071512   
    330000   1.0073824      0.0059413577   0.78679265    -0.21309683   
    331000   1.0075003      0.0060591463   0.76116973    -0.23883679   
    332000   0.99810836     0.0050211391   0.76848342    -0.22220099   
    333000   1.0766513      0.006411686    0.82647194    -0.24217125   
    334000   1.0367569      0.0068372919   0.79670597    -0.23233953   
    335000   0.97745255     0.0045786391   0.73195424    -0.238228     
    336000   0.96084042     0.0055553663   0.73307227    -0.22062139   
    337000   0.94649947     0.0061671934   0.70203403    -0.23742536   
    338000   1.0015202      0.006340126    0.75305894    -0.24101191   
    339000   1.0076981      0.0061383545   0.76834762    -0.23185524   
    340000   1.0486         0.0055537028   0.83451033    -0.20629019   
    341000   1.0526104      0.005544435    0.8080846     -0.23669647   
    342000   0.95683357     0.0045347969   0.71093443    -0.23878219   
    343000   0.98075409     0.0066512498   0.75923016    -0.21422906   
    344000   1.005158       0.0061856986   0.78239842    -0.21528324   
    345000   1.0040431      0.0064020367   0.78704466    -0.20953032   
    346000   1.0932266      0.0058291218   0.88231047    -0.20278468   
    347000   0.95772838     0.005972722    0.73026021    -0.22034457   
    348000   1.0172806      0.006412774    0.79489454    -0.21481946   
    349000   0.98558245     0.0052662953   0.74270821    -0.23554347   
    350000   1.0407147      0.005468519    0.81541721    -0.21755667   
    351000   0.9835877      0.005993444    0.77901562    -0.19725614   
    352000   0.9586542      0.0060708758   0.75321579    -0.19830792   
    353000   0.98329818     0.0063937294   0.78110563    -0.19487875   
    354000   1.0673844      0.0059477917   0.87279845    -0.18664673   
    355000   1.0274134      0.0059442659   0.8356092     -0.18416226   
    356000   1.0325888      0.005727672    0.83280791    -0.19210051   
    357000   0.95969678     0.0056778692   0.77830276    -0.17425578   
    358000   0.97361946     0.0059904558   0.80139649    -0.16498117   
    359000   0.976501       0.0064095994   0.77030275    -0.19893503   
    360000   0.99426397     0.0057785775   0.80847363    -0.17839499   
    361000   0.96837393     0.0060331683   0.78410479    -0.17706636   
    362000   0.9622321      0.0049835088   0.77451923    -0.18055578   
    363000   0.98971062     0.0057986831   0.7905632     -0.19178594   
    364000   0.94686351     0.0061718275   0.74036435    -0.19945637   
    365000   1.0640065      0.0067782705   0.8575677     -0.19852472   
    366000   1.0188069      0.0072406315   0.82122152    -0.19000746   
    367000   1.0162964      0.0062619658   0.80168334    -0.20705386   
    368000   0.94495553     0.0058954491   0.74442678    -0.19350015   
    369000   1.0294228      0.0066058718   0.8357984     -0.18596751   
    370000   1.0552039      0.0058469519   0.86473087    -0.18262439   
    371000   1.0330893      0.0056594461   0.85230055    -0.17310457   
    372000   0.97320927     0.0056339867   0.79696394    -0.16900658   
    373000   0.99241826     0.0048424267   0.78945654    -0.1955801    
    374000   0.92398264     0.0054000917   0.74389821    -0.17321184   
    375000   1.0143013      0.0057168383   0.83650421    -0.17025273   
    376000   0.98918023     0.0059941675   0.82097661    -0.16084608   
    377000   0.97409313     0.0056920631   0.80295388    -0.16389393   
    378000   1.027375       0.00585571     0.84253728    -0.1771961    
    379000   0.98041891     0.0059234998   0.798417      -0.17470953   
    380000   1.0710293      0.0061278249   0.88819058    -0.17487243   
    381000   0.99568466     0.0051277677   0.82911146    -0.15916728   
    382000   1.0352502      0.0059634383   0.86625932    -0.16129072   
    383000   0.96749114     0.0062200555   0.78958373    -0.1707112    
    384000   0.98185867     0.0051458011   0.79239508    -0.18216051   
    385000   1.0533291      0.0067841153   0.86082992    -0.18466447   
    386000   1.0161917      0.0060737094   0.81925951    -0.18937377   
    387000   0.95579541     0.005574456    0.77716104    -0.17152514   
    388000   1.0030516      0.0048419187   0.81073843    -0.18485241   
    389000   1.0785185      0.0068952142   0.88235538    -0.18814107   
    390000   0.94260948     0.0050936896   0.75420456    -0.18139378   
    391000   0.97589604     0.0056870782   0.81253089    -0.15610642   
    392000   1.0126975      0.0063813727   0.80506941    -0.20009567   
    393000   1.0678155      0.0062404896   0.86181581    -0.19805727   
    394000   0.92828734     0.0058147929   0.72526176    -0.19612096   
    395000   1.0080007      0.0064031812   0.79785916    -0.20264404   
    396000   1.0382984      0.0067233844   0.84616278    -0.18441273   
    397000   0.94772814     0.004700623    0.74592275    -0.19475617   
    398000   1.0068034      0.0062800821   0.81867825    -0.1806365    
    399000   1.0073286      0.0060286666   0.81640284    -0.1834332    
    400000   1.0241161      0.0065847168   0.84013484    -0.17636382   
    401000   1.0934892      0.0063874485   0.89322666    -0.1921291    
    402000   1.0286019      0.0072666099   0.83461546    -0.18633566   
    403000   0.98663057     0.0055906017   0.82356023    -0.15573177   
    404000   0.91488725     0.0049796621   0.74907279    -0.15900952   
    405000   0.97821269     0.0055511912   0.80894763    -0.1619891    
    406000   0.9232852      0.0056443724   0.76744859    -0.1489692    
    407000   0.99244259     0.005611563    0.83992983    -0.14513095   
    408000   0.95803339     0.0063609679   0.82561669    -0.12529083   
    409000   1.0591822      0.0055383727   0.91573363    -0.13557033   
    410000   0.99358808     0.0062036923   0.84384026    -0.1423575    
    411000   1.0247456      0.0065930356   0.87409339    -0.14303017   
    412000   1.0194967      0.0064813145   0.8690979     -0.14281575   
    413000   0.96048368     0.0058246438   0.81745615    -0.13588344   
    414000   1.0124951      0.0062060904   0.86430615    -0.14065795   
    415000   0.98475153     0.0060968654   0.87030497    -0.10712197   
    416000   0.9532662      0.0056765464   0.83119739    -0.11497841   
    417000   1.0304721      0.0056218386   0.90777811    -0.11502933   
    418000   1.0028319      0.0059721438   0.87389427    -0.1214786    
    419000   0.99367268     0.0067075809   0.87670853    -0.1095732    
    420000   1.0355618      0.0058561978   0.88764322    -0.14021607   
    421000   1.0187914      0.0066088788   0.88252434    -0.12868927   
    422000   1.0654536      0.0073499477   0.92740171    -0.13012702   
    423000   1.0643244      0.0055894001   0.91437864    -0.14202926   
    424000   1.0289262      0.0061203965   0.87449212    -0.14678089   
    425000   0.98772534     0.0059547265   0.8369211     -0.14345753   
    426000   0.97039256     0.0062463757   0.81835622    -0.14481855   
    427000   0.99253948     0.0056434137   0.84148911    -0.14366785   
    428000   0.99615816     0.0068261612   0.82989433    -0.15885439   
    429000   1.000467       0.0069311537   0.85400537    -0.13902017   
    430000   0.96241969     0.0057441381   0.80635363    -0.14890757   
    431000   0.96312357     0.0068260039   0.82004229    -0.13591755   
    432000   1.0536441      0.0063784395   0.90150397    -0.14430315   
    433000   1.0676652      0.0059149529   0.90964796    -0.15007591   
    434000   1.0305936      0.0058840977   0.89806977    -0.12485826   
    435000   0.98661739     0.0059761512   0.82862291    -0.15065601   
    436000   1.0019129      0.0063895589   0.84668816    -0.14777252   
    437000   0.9476467      0.0059323837   0.79195316    -0.14864493   
    438000   0.96524979     0.0065410901   0.80832321    -0.14974704   
    439000   1.0000859      0.0060639856   0.85676747    -0.13587975   
    440000   0.9423264      0.0059713415   0.78361123    -0.15170613   
    441000   0.98497386     0.0055513905   0.83716034    -0.14048727   
    442000   1.0784472      0.0067670938   0.9371288     -0.1332969    
    443000   1.0246216      0.0062490282   0.88150957    -0.13549089   
    444000   0.98462271     0.0061079483   0.82955737    -0.14774171   
    445000   1.089738       0.0071658384   0.93833845    -0.14329404   
    446000   0.94455162     0.0056567525   0.79473222    -0.14279381   
    447000   0.98497955     0.0062998804   0.84541762    -0.13223564   
    448000   1.0146483      0.005398621    0.86546112    -0.14164024   
    449000   1.0593884      0.0060455144   0.88877861    -0.16273005   
    450000   0.96565315     0.0048780074   0.78877199    -0.16969862   
    451000   1.0067469      0.0060999869   0.83169707    -0.16756166   
    452000   0.95558103     0.0060655266   0.79388255    -0.15459086   
    453000   0.97874111     0.005955765    0.82689257    -0.14456865   
    454000   0.98877015     0.0057850609   0.82164618    -0.15976948   
    455000   0.98860872     0.0059957884   0.82972307    -0.15153236   
    456000   0.97759814     0.0054173384   0.83052189    -0.13980486   
    457000   1.0101223      0.0060017878   0.85165045    -0.15095857   
    458000   0.95946281     0.0065487671   0.80368262    -0.14864369   
    459000   0.97084195     0.0060093407   0.80715416    -0.15646665   
    460000   1.0314477      0.0051127904   0.87555231    -0.14822346   
    461000   1.130229       0.0069059475   0.98076718    -0.1410552    
    462000   1.0908602      0.0066334638   0.92820613    -0.15454024   
    463000   1.0255084      0.005956079    0.87479267    -0.14308794   
    464000   1.0060558      0.0061829243   0.85916018    -0.13941258   
    465000   1.0485799      0.0064787384   0.90954686    -0.13123367   
    466000   0.94647849     0.0058080613   0.83420242    -0.10523614   
    467000   0.92062776     0.0052314763   0.78743878    -0.12634133   
    468000   1.0149453      0.0069765699   0.88357744    -0.12381872   
    469000   0.98440765     0.0045644286   0.84317069    -0.13391492   
    470000   0.97982851     0.0065688488   0.84430197    -0.12823856   
    471000   1.0037682      0.0069047985   0.8730171     -0.12328501   
    472000   1.0156745      0.0056541095   0.86969884    -0.13842102   
    473000   0.9812805      0.005844038    0.84961233    -0.12436939   
    474000   1.0665043      0.0068466707   0.93495306    -0.12361859   
    475000   1.0343784      0.0054079634   0.89506614    -0.13161851   
    476000   1.0296215      0.0051119761   0.88226924    -0.13969393   
    477000   1.024927       0.0053395816   0.89554252    -0.12176105   
    478000   1.0143278      0.0052871162   0.8475039     -0.15927931   
    479000   0.91087075     0.005455786    0.76812104    -0.13597464   
    480000   0.99798574     0.0047972148   0.84428365    -0.14627905   
    481000   0.95100395     0.0053599878   0.77565904    -0.16827132   
    482000   1.0071703      0.0068578751   0.84953008    -0.15014886   
    483000   1.0047796      0.0063903354   0.83632803    -0.16097796   
    484000   0.91620193     0.0060958183   0.75359441    -0.1557928    
    485000   1.0334809      0.0067245606   0.87459076    -0.15120305   
    486000   0.97651106     0.0058112416   0.80624697    -0.16300078   
    487000   0.89782986     0.0045560382   0.74868336    -0.14246843   
    488000   0.971049       0.0055539431   0.82972263    -0.13410369   
    489000   0.98685137     0.0067118371   0.84560269    -0.13390846   
    490000   0.96587134     0.0061653675   0.81432328    -0.14436389   
    491000   1.0114754      0.0059927932   0.84891442    -0.15503763   
    492000   0.96032866     0.0056686784   0.79625191    -0.15693381   
    493000   1.0176793      0.0063899336   0.85607727    -0.15403253   
    494000   0.98502478     0.0056902504   0.82310388    -0.15459427   
    495000   1.0100207      0.0056464673   0.82917521    -0.17333289   
    496000   1.006165       0.0061048195   0.82694963    -0.17173146   
    497000   0.94171762     0.0045737644   0.7710364     -0.16367671   
    498000   1.0242442      0.005894925    0.87475206    -0.14187375   
    499000   0.98519032     0.0056058859   0.83060781    -0.14725464   
    500000   1.0083697      0.0058437307   0.86633946    -0.13452994   
    501000   1.0669102      0.0071583243   0.92454807    -0.13442645   
    502000   1.0239252      0.0064596334   0.86427121    -0.15203803   
    503000   0.98823905     0.0066045778   0.83229555    -0.14859295   
    504000   0.93619965     0.0057423639   0.80038393    -0.12885226   
    505000   0.99566214     0.005735105    0.86477108    -0.1234853    
    506000   0.93477499     0.0059173846   0.79451848    -0.13330364   
    507000   1.0175986      0.0063039265   0.88100423    -0.12902543   
    508000   0.96677956     0.0056411129   0.82216187    -0.13742677   
    509000   0.97665786     0.0049820009   0.83167032    -0.13772314   
    510000   1.0041681      0.0056291766   0.84531659    -0.15138245   
    511000   1.0085781      0.0065414487   0.84152215    -0.15955417   
    512000   0.99250319     0.006307601    0.82268169    -0.16243925   
    513000   0.95950281     0.0055818401   0.8207999     -0.13156611   
    514000   1.0004491      0.00615238     0.84531189    -0.14769584   
    515000   1.1086295      0.0068536088   0.97086253    -0.12952098   
    516000   1.046879       0.0053427345   0.86517938    -0.17391295   
    517000   1.0328268      0.0065106803   0.84175588    -0.18338873   
    518000   0.94597574     0.0056696148   0.780747      -0.15819256   
    519000   1.0500465      0.0055142582   0.87590694    -0.16632927   
    520000   0.98641545     0.0066297286   0.81833401    -0.16074446   
    521000   0.98749949     0.0049605173   0.8110371     -0.16911735   
    522000   1.0371636      0.0063739997   0.85338857    -0.17606056   
    523000   0.98309258     0.0057666978   0.79097578    -0.18480454   
    524000   0.97309332     0.0054361534   0.78336792    -0.18248752   
    525000   0.95697523     0.0059620616   0.76457774    -0.1852795    
    526000   0.99586169     0.0058110414   0.82851843    -0.15993603   
    527000   0.97156292     0.0060445984   0.80373367    -0.16060275   
    528000   0.9490205      0.0054689655   0.75490476    -0.18705691   
    529000   0.97591334     0.0064280012   0.80854047    -0.16011401   
    530000   1.011642       0.0054546449   0.81991938    -0.18419804   
    531000   1.0348745      0.0058074921   0.85153938    -0.17563772   
    532000   1.0003573      0.0060703866   0.83196923    -0.16094736   
    533000   0.96127758     0.0057007429   0.7942171     -0.15991049   
    534000   0.94368855     0.005421007    0.79765928    -0.1390101    
    535000   0.99508432     0.0058470017   0.84015599    -0.14752687   
    536000   0.92164639     0.0046751338   0.77514467    -0.13964649   
    537000   1.0320726      0.0055460788   0.87115814    -0.15323784   
    538000   1.0869434      0.0068684033   0.90503655    -0.17382213   
    539000   1.0015779      0.0057406246   0.84939536    -0.1447328    
    540000   0.97431975     0.0053823784   0.81037725    -0.15669549   
    541000   0.99046138     0.0047406096   0.8050921     -0.17800221   
    542000   0.94962483     0.0059190692   0.78877455    -0.15378696   
    543000   1.0647301      0.0061037588   0.89045212    -0.16635846   
    544000   0.99846324     0.006286559    0.81094221    -0.18009444   
    545000   1.0177739      0.0063915145   0.84417857    -0.16602511   
    546000   0.94731274     0.0052473509   0.76973355    -0.17053307   
    547000   1.1069268      0.0067997636   0.93393018    -0.16476329   
    548000   1.0929031      0.0061260006   0.92015394    -0.16462017   
    549000   0.9625813      0.0061700177   0.77701958    -0.17840203   
    550000   1.0286827      0.0055039045   0.84798335    -0.17304798   
    551000   1.0192055      0.0062416012   0.86597361    -0.14565099   
    552000   1.0029942      0.0063803059   0.81901684    -0.17651706   
    553000   0.97366924     0.0045163813   0.78326284    -0.18316423   
    554000   0.99105226     0.0060903707   0.80098827    -0.18269253   
    555000   1.0647078      0.0066674894   0.88436078    -0.17242772   
    556000   0.99928748     0.0052833307   0.81114772    -0.18070705   
    557000   1.0155201      0.0066904956   0.83440977    -0.17355691   
    558000   0.97581415     0.0058077675   0.79142328    -0.17713274   
    559000   0.96116679     0.0055153007   0.77688315    -0.17713447   
    560000   1.0151165      0.0050410141   0.81326286    -0.19430321   
    561000   0.93724809     0.005735423    0.74033898    -0.18993784   
    562000   0.96938515     0.0065948623   0.79622265    -0.16595219   
    563000   1.0290497      0.0055690172   0.83125245    -0.19014315   
    564000   0.9805887      0.0063150196   0.79146142    -0.18183365   
    565000   1.0579222      0.0076882243   0.88401282    -0.16604049   
    566000   1.0119493      0.0057377243   0.82322954    -0.18119287   
    567000   1.0513673      0.0061559062   0.87168718    -0.17186006   
    568000   1.0317294      0.0061343879   0.84636875    -0.17768668   
    569000   0.98141837     0.0054301414   0.81927127    -0.1548473    
    570000   0.95609383     0.0046577831   0.76618601    -0.18279637   
    571000   0.97025591     0.0060283143   0.77398644    -0.18905269   
    572000   1.0229567      0.0057676055   0.82801623    -0.18733168   
    573000   1.0039483      0.0053667569   0.81878129    -0.17769966   
    574000   1.0274728      0.0056125602   0.83547225    -0.18435819   
    575000   0.96303524     0.0051265244   0.74842315    -0.20744902   
    576000   1.0363242      0.0065747931   0.82801632    -0.20059972   
    577000   0.94140497     0.0059529106   0.7211295     -0.21327328   
    578000   1.0129879      0.0066847166   0.8244822     -0.18097109   
    579000   1.0317887      0.005976666    0.83545102    -0.18866326   
    580000   0.99795507     0.0063712677   0.80107602    -0.18945624   
    581000   0.98276283     0.0057421555   0.78127591    -0.19417711   
    582000   1.013419       0.0056114442   0.80918617    -0.196695     
    583000   0.97951505     0.005013596    0.76747718    -0.20475222   
    584000   0.95200675     0.0056938917   0.74904631    -0.1958794    
    585000   1.061461       0.006274464    0.83503232    -0.21853355   
    586000   1.0165822      0.0055359627   0.80139558    -0.20762524   
    587000   0.956252       0.0049597409   0.74669155    -0.20244783   
    588000   0.92088293     0.0053528651   0.69798207    -0.21605132   
    589000   0.97618402     0.0066277504   0.78656233    -0.18236082   
    590000   1.0501074      0.0064871276   0.84388368    -0.19841302   
    591000   1.0220493      0.0065777321   0.84243769    -0.17200964   
    592000   1.0033594      0.0055802639   0.8152703     -0.18062606   
    593000   0.99613701     0.0059993908   0.80102003    -0.18770769   
    594000   1.0162516      0.0071901343   0.82824889    -0.18044377   
    595000   1.0168165      0.0055451535   0.84145241    -0.16780099   
    596000   1.0633065      0.005567535    0.87472453    -0.18067304   
    597000   0.99332635     0.0059808843   0.80939307    -0.1765449    
    598000   0.96326819     0.0070648403   0.78283358    -0.17326981   
    599000   1.0069947      0.0058084514   0.82028408    -0.17922059   
    600000   1.0039604      0.0062501568   0.81146171    -0.18503122   
    601000   1.0116657      0.0055010421   0.83102063    -0.17312029   
    602000   1.004604       0.0054559342   0.84147511    -0.15565666   
    603000   1.0039005      0.0067088586   0.83500046    -0.161433     
    604000   0.97253856     0.0055681744   0.80776611    -0.15753869   
    605000   0.98563308     0.0054889991   0.80117885    -0.17712308   
    606000   1.0238592      0.0059393191   0.87066444    -0.14557927   
    607000   0.96013889     0.0054923298   0.81186321    -0.14113415   
    608000   1.0242986      0.0059294438   0.85846751    -0.15821234   
    609000   0.98232053     0.0069947726   0.78762835    -0.18738567   
    610000   0.97935883     0.0052870024   0.80109875    -0.17097559   
    611000   1.0120346      0.0061369676   0.82867391    -0.17583315   
    612000   0.94896214     0.0054803936   0.79363512    -0.14826862   
    613000   1.0406056      0.0065883703   0.84555654    -0.18730901   
    614000   1.0326858      0.0061341478   0.83742632    -0.18757837   
    615000   1.0267415      0.0060244617   0.81624144    -0.2028631    
    616000   0.97718502     0.0058229788   0.77686867    -0.19304803   
    617000   1.0000159      0.0059986264   0.80469822    -0.1878795    
    618000   0.93113714     0.0045259334   0.7247373     -0.19947403   
    619000   0.98740784     0.0056419228   0.80304792    -0.17701557   
    620000   0.98644407     0.0062823486   0.7945701     -0.18453678   
    621000   1.0104013      0.0054684713   0.81708008    -0.1858058    
    622000   0.9979964      0.0056824838   0.80622061    -0.18435267   
    623000   1.0431644      0.0056388894   0.84842223    -0.18698308   
    624000   0.97098297     0.0055579682   0.77172404    -0.19203674   
    625000   0.91037696     0.0056274043   0.70499724    -0.19860833   
    626000   1.0137914      0.0066004427   0.81102986    -0.19522095   
    627000   1.0898246      0.0065320188   0.8906654     -0.19105306   
    628000   0.97975355     0.0057700189   0.78093102    -0.19153511   
    629000   0.97508982     0.005046206    0.77937691    -0.18846018   
    630000   1.0001598      0.0062051886   0.81379334    -0.17892727   
    631000   0.96657008     0.0058860351   0.78210318    -0.17727754   
    632000   0.97326419     0.0055687834   0.77517265    -0.19085239   
    633000   0.99800561     0.0064199128   0.78635303    -0.20422939   
    634000   1.0446203      0.0070466426   0.84973668    -0.18711375   
    635000   0.99690979     0.0050987624   0.80660557    -0.18288919   
    636000   0.96355696     0.0054827726   0.77646514    -0.17992487   
    637000   0.96854854     0.0050057874   0.77283731    -0.18850715   
    638000   1.0206931      0.0063947721   0.8482551     -0.1648461    
    639000   1.0317756      0.0065173336   0.82947678    -0.19462445   
    640000   0.94026987     0.0064221521   0.72782178    -0.20545434   
    641000   1.0103008      0.0055951595   0.79550817    -0.20727804   
    642000   0.99143319     0.0062347613   0.78833372    -0.19572517   
    643000   0.99572154     0.0066101654   0.7792703     -0.20904505   
    644000   1.0115147      0.006414993    0.79761404    -0.20637702   
    645000   0.99328809     0.0062359868   0.78843245    -0.19746755   
    646000   1.0238303      0.0070177961   0.81123561    -0.20497944   
    647000   0.95909411     0.0056314414   0.75822939    -0.19373096   
    648000   0.98808568     0.0058062962   0.7915553     -0.18918097   
    649000   1.0065112      0.0058082908   0.8019843     -0.19704049   
    650000   0.99553773     0.0064166086   0.79305577    -0.19507713   
    651000   1.0009226      0.0074779094   0.81380913    -0.1796686    
    652000   1.0297391      0.0055953557   0.82192331    -0.20015657   
    653000   0.99886512     0.0054576458   0.81999156    -0.17144399   
    654000   1.00247        0.0056523793   0.82476193    -0.17025171   
    655000   0.93991755     0.0052124106   0.75757057    -0.17535586   
    656000   0.94962979     0.0061148595   0.76637048    -0.17619595   
    657000   0.97472948     0.006629734    0.81150303    -0.15597639   
    658000   1.0239436      0.006198698    0.86987272    -0.14645479   
    659000   1.0031601      0.0065927678   0.82317447    -0.17252407   
    660000   1.0185415      0.0052848428   0.83607955    -0.17488598   
    661000   1.0133113      0.0064018045   0.82420983    -0.18156447   
    662000   0.93538101     0.0057177131   0.74496065    -0.18346298   
    663000   1.0197989      0.0063587963   0.84887444    -0.16333919   
    664000   0.99628215     0.0052799962   0.83138633    -0.15748546   
    665000   1.0409583      0.0061577408   0.86809693    -0.16511872   
    666000   0.93768659     0.0047370482   0.76967274    -0.16103932   
    667000   1.0480575      0.006069431    0.87258361    -0.16767846   
    668000   0.96233238     0.0053256649   0.81007386    -0.14510068   
    669000   1.0260532      0.0065264224   0.86260133    -0.15582011   
    670000   1.000998       0.0061328666   0.84021148    -0.15334107   
    671000   0.96936903     0.0052089918   0.80687273    -0.15528612   
    672000   1.0432894      0.0063652015   0.89236274    -0.14316665   
    673000   1.0700662      0.0065840797   0.92437794    -0.13772912   
    674000   0.9836824      0.0068731178   0.82488817    -0.15147759   
    675000   1.0166209      0.0057460332   0.87584057    -0.13321865   
    676000   0.94702401     0.006491237    0.79194195    -0.14803808   
    677000   1.00186        0.0052923975   0.83762804    -0.15678016   
    678000   1.0207092      0.0059021718   0.86250511    -0.15061204   
    679000   1.0153445      0.0059539531   0.8491791     -0.15861329   
    680000   0.99949535     0.006117813    0.82550958    -0.1665515    
    681000   0.97200846     0.0060357624   0.80009787    -0.16468077   
    682000   0.89310584     0.0058817772   0.7351861     -0.1512768    
    683000   0.9951286      0.0061545497   0.82395999    -0.16376682   
    684000   1.0510278      0.0049406855   0.87623693    -0.1669733    
    685000   0.95724613     0.0051338843   0.77506053    -0.17506559   
    686000   0.94542148     0.0064282691   0.75910499    -0.17928444   
    687000   0.96881143     0.0057248928   0.80422696    -0.15737843   
    688000   1.0179558      0.0051808218   0.86349227    -0.14689197   
    689000   1.018199       0.0058046222   0.85142802    -0.15919756   
    690000   0.99733943     0.0062307853   0.83336745    -0.15655375   
    691000   0.9706787      0.0057762122   0.78894442    -0.17451435   
    692000   1.0149295      0.005895068    0.85812458    -0.14925584   
    693000   1.0155286      0.0058478513   0.84511195    -0.16286318   
    694000   0.98573246     0.005916303    0.82265039    -0.15575017   
    695000   0.91829727     0.0056556673   0.73549052    -0.17597643   
    696000   1.0566744      0.0061649943   0.87935799    -0.16945685   
    697000   0.95137943     0.005519416    0.78361227    -0.16069078   
    698000   0.95441796     0.0057922804   0.78517459    -0.1621444    
    699000   1.0118771      0.006122244    0.85195566    -0.15239511   
    700000   1.0118238      0.0060585581   0.84211164    -0.16218622   
    701000   1.0382537      0.0065772669   0.88608963    -0.14444153   
    702000   1.0842531      0.0067257312   0.94124746    -0.13494093   
    703000   1.078342       0.0057794094   0.92776881    -0.14255244   
    704000   1.0268065      0.00616313     0.8667065     -0.15246264   
    705000   1.0141882      0.0054045194   0.85335514    -0.15328949   
    706000   0.99347308     0.0053530383   0.84374638    -0.14233724   
    707000   1.0879763      0.0062439655   0.90660165    -0.17328227   
    708000   0.98570669     0.0060247485   0.80629072    -0.17208426   
    709000   0.98811118     0.006070774    0.83055994    -0.15020165   
    710000   1.0544038      0.0063358665   0.88076997    -0.16579112   
    711000   1.0729973      0.0058203392   0.88989427    -0.17512204   
    712000   1.0126576      0.0062107455   0.84659096    -0.15853448   
    713000   1.0843812      0.0062404178   0.92733623    -0.14897929   
    714000   1.0144943      0.0050616403   0.82902513    -0.17792338   
    715000   0.98846376     0.0048839764   0.80406292    -0.17704863   
    716000   1.0152505      0.0062262615   0.82826535    -0.1794337    
    717000   1.0096555      0.0062982534   0.81709197    -0.1850537    
    718000   1.0549322      0.0058630405   0.85554661    -0.191539     
    719000   0.99308911     0.0065769408   0.79014985    -0.19555265   
    720000   1.0232731      0.0070575785   0.81841545    -0.1972465    
    721000   0.91595756     0.0056416865   0.7293011     -0.17984355   
    722000   1.0403559      0.0063647155   0.84216506    -0.19045268   
    723000   0.95548174     0.0058164266   0.75043394    -0.19794091   
    724000   0.97967229     0.0055535538   0.78896519    -0.18342028   
    725000   0.97081828     0.0058839957   0.77068265    -0.19291467   
    726000   1.0058483      0.0059315007   0.82806447    -0.17030236   
    727000   1.0106681      0.0068834042   0.81456958    -0.18858115   
    728000   0.95477983     0.0054742454   0.78181932    -0.16585884   
    729000   1.0594849      0.0062763023   0.89138744    -0.16021701   
    730000   0.97443348     0.0064895491   0.80793308    -0.15925255   
    731000   1.0124116      0.0071054257   0.8441806     -0.16070071   
    732000   1.0087305      0.0063670013   0.80586913    -0.19535847   
    733000   1.0004287      0.0055685931   0.78559193    -0.20739556   
    734000   1.0031803      0.0068064171   0.78307877    -0.21263984   
    735000   1.0303717      0.0058078846   0.81576805    -0.20693975   
    736000   0.94350519     0.0050349762   0.70955917    -0.22692822   
    737000   1.0233408      0.0067663555   0.80352747    -0.21220169   
    738000   1.0271995      0.0062099162   0.81693235    -0.20262678   
    739000   1.0159022      0.0060006681   0.7749081     -0.23343779   
    740000   0.93894272     0.0055436981   0.71538522    -0.21657362   
    741000   1.0053716      0.0058535302   0.78960247    -0.20829114   
    742000   0.92868289     0.0055431155   0.70875662    -0.21301871   
    743000   1.0184472      0.0046492712   0.80605928    -0.20481272   
    744000   0.98720596     0.0056491293   0.75929951    -0.2205636    
    745000   1.0144695      0.0054435571   0.80433239    -0.20259146   
    746000   1.0083746      0.005903499    0.80340518    -0.19746911   
    747000   0.97368997     0.0053581611   0.75328642    -0.21316123   
    748000   0.9601812      0.0052913219   0.74524103    -0.20779833   
    749000   1.0747644      0.0067590945   0.86189517    -0.20487513   
    750000   0.98511598     0.0069206432   0.78023942    -0.19754925   
    751000   1.0345143      0.0054823777   0.82278826    -0.20403126   
    752000   1.0480803      0.0069539802   0.87205381    -0.16823085   
    753000   1.0632406      0.0059792888   0.86676563    -0.18856657   
    754000   1.0442188      0.0064573707   0.85083359    -0.18561827   
    755000   0.98266697     0.0064466789   0.78775492    -0.18760296   
    756000   0.96030793     0.0066795657   0.75011908    -0.20304606   
    757000   1.0232133      0.0070499576   0.81999204    -0.19561061   
    758000   0.94484282     0.0061584925   0.74554651    -0.19226855   
    759000   0.94442304     0.0052637559   0.7416111     -0.1957873    
    760000   0.99303234     0.0053593325   0.7791934     -0.20645274   
    761000   1.0775001      0.007364194    0.86324738    -0.20623827   
    762000   1.0228573      0.0052965449   0.80217199    -0.21307732   
    763000   1.0691663      0.0074007089   0.87640279    -0.18481106   
    764000   1.0339251      0.0060536752   0.84128359    -0.18495112   
    765000   1.0109602      0.0058612938   0.79904469    -0.20439593   
    766000   0.95494905     0.0069301035   0.76012641    -0.18771971   
    767000   1.026305       0.0058399717   0.81783245    -0.20083889   
    768000   1.0409029      0.0057568209   0.83070276    -0.20245792   
    769000   0.99097119     0.005862259    0.78183734    -0.20176299   
    770000   1.0081811      0.0066356431   0.79248449    -0.20819779   
    771000   0.94898538     0.0049170617   0.71991397    -0.22201285   
    772000   1.0235189      0.006594267    0.81289408    -0.20301184   
    773000   0.97926032     0.0056271328   0.75889004    -0.21308653   
    774000   0.8712661      0.0054184975   0.64856189    -0.21622372   
    775000   0.98576281     0.0063030348   0.78208532    -0.19634537   
    776000   1.0267297      0.0059838994   0.81480171    -0.20429119   
    777000   1.0034509      0.0063454776   0.80948251    -0.18650475   
    778000   0.96050233     0.0058474579   0.73729739    -0.21606071   
    779000   0.99538622     0.0063901114   0.74615662    -0.2418259    
    780000   1.1031087      0.0062533511   0.85723676    -0.23766697   
    781000   1.0587915      0.0060490284   0.81550068    -0.23541551   
    782000   0.9953958      0.0059332716   0.75043062    -0.23756141   
    783000   1.0252235      0.0059573552   0.79466293    -0.22293493   
    784000   1.018979       0.005283193    0.79105339    -0.22034643   
    785000   0.99356277     0.0057435285   0.76789986    -0.21827278   
    786000   1.0046247      0.005035673    0.76981474    -0.22733751   
    787000   1.0553238      0.0054327769   0.83153236    -0.21594188   
    788000   1.0192172      0.0062940043   0.79491713    -0.21671916   
    789000   0.96825349     0.0059250828   0.74304903    -0.21800258   
    790000   0.94600197     0.006270702    0.74201818    -0.19694741   
    791000   1.0382606      0.0053384908   0.83438805    -0.19614998   
    792000   1.0647459      0.0070526868   0.85294394    -0.20388235   
    793000   0.94834861     0.0055943819   0.74236455    -0.19893023   
    794000   0.98869431     0.0053241287   0.77289271    -0.20844768   
    795000   0.99847369     0.0047938769   0.79160627    -0.19944076   
    796000   0.9365199      0.006306172    0.73853124    -0.19102281   
    797000   1.0061344      0.0056527928   0.82204914    -0.17660163   
    798000   0.9943068      0.0055962099   0.81738562    -0.16952551   
    799000   1.0200272      0.0059465064   0.84339708    -0.16904317   
    800000   0.98866268     0.0060473563   0.77404022    -0.20726878   
    801000   1.0182601      0.0060239739   0.83119806    -0.17948818   
    802000   1.0541101      0.0061301797   0.85729031    -0.18897932   
    803000   1.0710136      0.0074879419   0.87930481    -0.18374258   
    804000   1.0011437      0.0061977688   0.80395729    -0.18973987   
    805000   1.0213675      0.0063797373   0.81969515    -0.19407539   
    806000   0.97020434     0.0056011317   0.77614254    -0.18684541   
    807000   1.024447       0.0064663745   0.82350752    -0.19331968   
    808000   0.91615109     0.0060312583   0.68659447    -0.22274227   
    809000   1.0208768      0.00538865     0.78296737    -0.23031611   
    810000   0.99018329     0.0056666392   0.76915227    -0.21366602   
    811000   0.98736004     0.0057332335   0.76543023    -0.21458581   
    812000   1.0428523      0.0064696543   0.83340574    -0.20168986   
    813000   1.0008694      0.0052936945   0.77933882    -0.2140861    
    814000   1.0284134      0.0065840881   0.83269827    -0.1880658    
    815000   1.0009022      0.006106447    0.81506966    -0.17838778   
    816000   0.97910499     0.0067738342   0.80554036    -0.16628204   
    817000   0.96984077     0.0062220451   0.76492148    -0.1977056    
    818000   0.99397971     0.0062162491   0.7849834     -0.20160308   
    819000   1.0509393      0.0067658923   0.84309975    -0.20002268   
    820000   0.96537411     0.0054731888   0.74178607    -0.21640757   
    821000   0.96677323     0.0056225437   0.75202969    -0.20755267   
    822000   1.0393878      0.0063192497   0.82646779    -0.20518906   
    823000   1.0315415      0.0062423278   0.81071497    -0.21315389   
    824000   1.049464       0.0051800399   0.83859066    -0.20306736   
    825000   1.0271823      0.0071550632   0.80905542    -0.21048667   
    826000   0.98944138     0.0060290012   0.7748599     -0.207222     
    827000   0.98750448     0.0056601075   0.762027      -0.21813241   
    828000   0.95979959     0.0061968559   0.74981606    -0.20284452   
    829000   0.96777738     0.0051826894   0.7774715     -0.18310753   
    830000   1.0084663      0.0060773673   0.79073354    -0.21023173   
    831000   0.97240883     0.0052211198   0.78214998    -0.18302605   
    832000   0.96028465     0.0060450466   0.75929677    -0.19384526   
    833000   1.0027001      0.0058370808   0.79416202    -0.20108      
    834000   1.0145985      0.0062894736   0.79553558    -0.21151637   
    835000   0.94319642     0.0056853251   0.74012537    -0.19605554   
    836000   1.0097649      0.0052094451   0.78018879    -0.22206548   
    837000   1.0447485      0.0069857148   0.84253776    -0.19443991   
    838000   1.0574775      0.0064385814   0.84499385    -0.20461811   
    839000   0.99555259     0.0061646895   0.82225522    -0.16589244   
    840000   1.0282576      0.0066809341   0.83744162    -0.18316781   
    841000   0.9902354      0.005396115    0.80285611    -0.1800139    
    842000   0.98964672     0.0051046032   0.79364243    -0.18864328   
    843000   0.98299403     0.0060305424   0.79737472    -0.17830779   
    844000   0.99584076     0.0063526829   0.78442185    -0.20401183   
    845000   1.0574749      0.0063991757   0.83847637    -0.21113302   
    846000   1.0461723      0.0065805892   0.83055203    -0.20783883   
    847000   1.0105468      0.0054434079   0.80067808    -0.20235226   
    848000   1.0278473      0.0051300092   0.81443992    -0.20576226   
    849000   0.98887305     0.0068266759   0.75052139    -0.23099641   
    850000   1.0582906      0.0054657062   0.83059329    -0.21982576   
    851000   1.0074356      0.0064665164   0.76802174    -0.23192056   
    852000   0.95287665     0.0055587594   0.69585733    -0.24993181   
    853000   0.97098417     0.0056424868   0.7239996     -0.23976237   
    854000   1.0094926      0.006195506    0.76679461    -0.23518939   
    855000   0.96498153     0.0056136561   0.74771325    -0.21009074   
    856000   1.0284704      0.0057747904   0.82294228    -0.19787834   
    857000   0.91676487     0.0059429353   0.73046122    -0.17948474   
    858000   1.0036572      0.0063292022   0.79013368    -0.20605834   
    859000   0.99449899     0.0058040752   0.78388059    -0.2032213    
    860000   1.0030953      0.0063105732   0.81325076    -0.18238354   
    861000   1.0206726      0.0067554329   0.8204611     -0.19261973   
    862000   1.0336514      0.0061292298   0.85163871    -0.17432438   
    863000   1.0128557      0.0058459153   0.80607398    -0.19924806   
    864000   1.013719       0.0049086794   0.82239351    -0.18378539   
    865000   1.0152671      0.0062929489   0.82229176    -0.18542373   
    866000   0.98874918     0.0045645208   0.7952852     -0.18610965   
    867000   0.94110681     0.0050485953   0.74214159    -0.19196525   
    868000   1.01495        0.0067040873   0.82099369    -0.18640714   
    869000   0.98442747     0.0063867004   0.78383027    -0.19327502   
    870000   0.98744001     0.0067285393   0.79312603    -0.18696938   
    871000   0.90126695     0.0060475418   0.70949283    -0.18507048   
    872000   1.0158917      0.0054676095   0.81881179    -0.1895237    
    873000   1.0305659      0.0067299217   0.81085783    -0.21204265   
    874000   0.98927858     0.0050655156   0.8090518     -0.17286851   
    875000   0.99989309     0.0066948589   0.81022487    -0.182231     
    876000   1.0015699      0.0054859043   0.80899578    -0.18512439   
    877000   1.0466461      0.0056315857   0.86516771    -0.17369343   
    878000   0.93778061     0.005996476    0.76724247    -0.16356291   
    879000   0.98872881     0.0056825884   0.79400395    -0.18737068   
    880000   1.006655       0.0056135941   0.82461637    -0.17455112   
    881000   0.97577569     0.0052336595   0.78924449    -0.17927337   
    882000   1.0257056      0.0071211382   0.83624514    -0.18183129   
    883000   0.94495167     0.0050987635   0.75185961    -0.18606349   
    884000   0.95606207     0.0061818639   0.78794577    -0.1610051    
    885000   1.0782268      0.0066579408   0.90111467    -0.16909228   
    886000   0.97879678     0.0047669196   0.80052965    -0.17098683   
    887000   0.99867204     0.0062460697   0.8220305     -0.1692134    
    888000   1.0397317      0.0061729377   0.85561001    -0.17638817   
    889000   1.0080043      0.0064452337   0.83723956    -0.16326715   
    890000   0.9801759      0.005960945    0.79202758    -0.18085776   
    891000   0.99576769     0.0047959294   0.81947765    -0.16888351   
    892000   0.97396775     0.0059138615   0.80677014    -0.15995323   
    893000   1.0615305      0.0059129716   0.89214723    -0.16148756   
    894000   1.045096       0.006859801    0.85834853    -0.17897402   
    895000   1.0041763      0.006875252    0.84151334    -0.15519393   
    896000   0.9881986      0.0056719409   0.81084738    -0.17000099   
    897000   0.95397217     0.0061527233   0.77493823    -0.17193828   
    898000   1.0222444      0.0070596556   0.86828026    -0.14636066   
    899000   1.0189513      0.0054394615   0.84044172    -0.1709306    
    900000   1.0128587      0.0071822017   0.81601086    -0.18931416   
    901000   0.9814175      0.0064691236   0.78983096    -0.18428674   
    902000   1.0378991      0.006549934    0.85941259    -0.17076657   
    903000   0.97225627     0.0052719704   0.79480595    -0.17021866   
    904000   1.0048066      0.0058680851   0.80874317    -0.18858964   
    905000   0.99871214     0.0067059142   0.79604306    -0.19524065   
    906000   1.0085414      0.00495139     0.82292424    -0.17811559   
    907000   0.97900015     0.0048159775   0.78568289    -0.18603544   
    908000   0.91781872     0.0051917779   0.71143089    -0.19956108   
    909000   1.0490213      0.0066110977   0.84854582    -0.19267281   
    910000   1.0106321      0.0056724738   0.82048772    -0.18262725   
    911000   1.0140546      0.0042439197   0.80963       -0.19688205   
    912000   1.074079       0.0062076783   0.88014392    -0.1859461    
    913000   0.95909658     0.0060985979   0.76071943    -0.19124338   
    914000   1.018242       0.0062607371   0.82467866    -0.18598968   
    915000   1.0024423      0.0058375702   0.81443039    -0.18055577   
    916000   1.0439594      0.0066588074   0.86342042    -0.17277404   
    917000   1.0116648      0.006182649    0.8127214     -0.1914186    
    918000   0.97501048     0.0061483211   0.76059255    -0.20716579   
    919000   0.98653859     0.0058804755   0.78225815    -0.19694255   
    920000   0.96151154     0.005999414    0.7531288     -0.201231     
    921000   1.0543073      0.006548705    0.83949969    -0.20696569   
    922000   0.97756022     0.0060312948   0.75546829    -0.21482082   
    923000   1.0254831      0.007116652    0.81064611    -0.20720939   
    924000   0.97894426     0.0056775354   0.76443649    -0.20722637   
    925000   1.1647007      0.007265337    0.9577953     -0.19824235   
    926000   0.99977711     0.0050773123   0.7941215     -0.19821926   
    927000   1.0092898      0.0063230684   0.78490731    -0.2168754    
    928000   0.9581677      0.0057634959   0.77380786    -0.17723297   
    929000   0.95421716     0.0061244574   0.73127102    -0.21584865   
    930000   1.0107023      0.0055937374   0.78942569    -0.21375896   
    931000   0.90534564     0.005246073    0.73431151    -0.16430016   
    932000   1.0131005      0.0052485603   0.83077016    -0.17479485   
    933000   1.0013675      0.0065353105   0.80205737    -0.19186196   
    934000   1.0030361      0.0055287843   0.80989329    -0.18568217   
    935000   0.92070398     0.0058068981   0.71367216    -0.20018362   
    936000   0.99022465     0.0060029503   0.75888569    -0.22397365   
    937000   0.98941548     0.0058589772   0.77995478    -0.20210141   
    938000   1.0017928      0.0062518127   0.75705591    -0.23728555   
    939000   0.90217812     0.0052120229   0.66838243    -0.22708528   
    940000   1.0039603      0.0059827994   0.75985436    -0.23663847   
    941000   0.9796845      0.0058449228   0.73831147    -0.23408612   
    942000   1.0318305      0.0062464752   0.80479666    -0.21935905   
    943000   0.905818       0.0058890012   0.68184463    -0.21723589   
    944000   0.99900413     0.0060473716   0.77785545    -0.21371807   
    945000   1.0232552      0.0051145502   0.81687817    -0.19876605   
    946000   0.97944166     0.0056952011   0.77252344    -0.19963312   
    947000   0.98405544     0.0047480091   0.76701651    -0.20971951   
    948000   1.0712828      0.0055559513   0.87359191    -0.18972268   
    949000   0.96979844     0.006348572    0.75462304    -0.20796203   
    950000   1.0439696      0.006056118    0.83462506    -0.20157945   
    951000   0.96009912     0.0052060708   0.75792944    -0.19502845   
    952000   1.0077776      0.0061358677   0.81049735    -0.18978433   
    953000   1.0131746      0.0067842431   0.84057444    -0.16506412   
    954000   1.081666       0.0055478408   0.87833447    -0.19528603   
    955000   1.041139       0.0058550055   0.84768139    -0.18571357   
    956000   1.0195273      0.0052719793   0.81156263    -0.20038142   
    957000   1.0181962      0.0052686816   0.82715502    -0.18346782   
    958000   0.93770977     0.0047628879   0.74520503    -0.18553004   
    959000   1.051681       0.006430478    0.85578933    -0.18806929   
    960000   0.98964252     0.0059747626   0.81416826    -0.16811328   
    961000   0.98588245     0.0061394329   0.787834      -0.19071544   
    962000   0.98385408     0.0049430341   0.78716494    -0.18937122   
    963000   0.97227516     0.005325642    0.77079927    -0.1942441    
    964000   0.9823102      0.0058732732   0.80661879    -0.16838497   
    965000   1.0942314      0.0066173066   0.90237677    -0.18371569   
    966000   1.0363575      0.006311932    0.82965228    -0.19899678   
    967000   1.0167369      0.0057744063   0.81347138    -0.19570306   
    968000   0.95962418     0.0060647476   0.74957367    -0.20291281   
    969000   0.99868975     0.0071890801   0.80181817    -0.18944331   
    970000   1.0571689      0.0067741558   0.87207641    -0.17722926   
    971000   0.99845576     0.0069526206   0.79153174    -0.19949749   
    972000   1.0789625      0.0059269069   0.85278554    -0.21815158   
    973000   1.0527909      0.0053099091   0.81847005    -0.22649019   
    974000   0.9771975      0.0055782588   0.76698849    -0.2029406    
    975000   0.99491704     0.0052077726   0.75422482    -0.23329201   
    976000   0.96041882     0.0062221744   0.76265204    -0.19062316   
    977000   0.9848935      0.005623715    0.77707522    -0.20049262   
    978000   0.94502991     0.0050926767   0.72224454    -0.21575623   
    979000   0.99074171     0.0057922812   0.77955159    -0.20382096   
    980000   0.97931436     0.0045934885   0.76827901    -0.20375119   
    981000   1.0400092      0.0061797197   0.8719468     -0.16032678   
    982000   0.97658468     0.0058758035   0.80585274    -0.16346809   
    983000   0.99597175     0.0061295625   0.80528318    -0.18328052   
    984000   0.94532295     0.0054171368   0.74744764    -0.19084399   
    985000   1.0391666      0.0068733688   0.8512214     -0.18021585   
    986000   1.0614177      0.0065075887   0.87271408    -0.18080877   
    987000   0.98947967     0.0053994709   0.79446323    -0.18765667   
    988000   0.9942165      0.0052918721   0.8141842     -0.1726373    
    989000   1.0981707      0.0065681333   0.90208536    -0.18791708   
    990000   1.0014654      0.006235962    0.81298219    -0.18103427   
    991000   0.9744076      0.0063494368   0.75558675    -0.21157319   
    992000   0.95756989     0.0059779947   0.76628391    -0.18416356   
    993000   0.94521471     0.0056207279   0.74641793    -0.19176626   
    994000   0.94476698     0.0057914511   0.7324979     -0.20524189   
    995000   0.96135849     0.0058929016   0.78818708    -0.16602081   
    996000   1.0208391      0.0060128416   0.82809677    -0.18514927   
    997000   1.010134       0.0058171876   0.80783886    -0.19478174   
    998000   1.0108205      0.0065591748   0.80274857    -0.20055343   
    999000   0.98642173     0.0060371618   0.79104071    -0.188044     
   1000000   0.99075907     0.0054844721   0.80185318    -0.1815366    
Loop time of 30.1079 on 1 procs for 1000000 steps with 605 atoms

Performance: 28696834.045 tau/day, 33213.928 timesteps/s
98.3% CPU use with 1 MPI tasks x no OpenMP threads

MPI task timing breakdown:
Section |  min time  |  avg time  |  max time  |%varavg| %total
---------------------------------------------------------------
Pair    | 1.8829     | 1.8829     | 1.8829     |   0.0 |  6.25
Bond    | 0.046146   | 0.046146   | 0.046146   |   0.0 |  0.15
Neigh   | 7.5938     | 7.5938     | 7.5938     |   0.0 | 25.22
Comm    | 1.4009     | 1.4009     | 1.4009     |   0.0 |  4.65
Output  | 0.55925    | 0.55925    | 0.55925    |   0.0 |  1.86
Modify  | 16.537     | 16.537     | 16.537     |   0.0 | 54.93
Other   |            | 2.087      |            |       |  6.93

Nlocal:            605 ave         605 max         605 min
Histogram: 1 0 0 0 0 0 0 0 0 0
Nghost:             87 ave          87 max          87 min
Histogram: 1 0 0 0 0 0 0 0 0 0
Neighs:             50 ave          50 max          50 min
Histogram: 1 0 0 0 0 0 0 0 0 0

Total # of neighbors = 50
Ave neighs/atom = 0.082644628
Ave special neighs/atom = 0
Neighbor list builds = 218372
Dangerous builds = 0
Total wall time: 0:00:30
