fix fLANG all langevin 1.0 1.0 1.0 100
neigh_modify exclude molecule/intra all
fix rigidNVE linked_vesicle rigid/nve molecule
  1 rigid bodies with 5 atoms
fix NVE synapsin nve 1.0 1.0 1.0

    ##======================================##
    ## Output
    ##======================================##

thermo 1000
thermo_style custom step temp press etotal epair
thermo_modify flush yes
timestep 0.01

    ##======================================##
    ## Equilibration before output
    ##======================================##


    ##======================================##
    ## Run with output
    ##======================================##

fix enforce_2d all enforce2d
dump 2 all custom 1000 Results_eps_attr1_eps_rep1_eps_rep_weak0.01_range2_attr_with_repFalse_n_synapsin400_n_vesicles1/Movie_2d_eps_attr1_eps_rep1_eps_rep_weak0.01_range2_attr_with_repFalse_n_synapsin400_n_vesicles1.xyz id type mol x y z
run 1000000
Generated 0 of 3 mixed pair_coeff terms from geometric mixing rule
Neighbor list info ...
  update every 1 steps, delay 1 steps, check yes
  max neighbors/atom: 2000, page size: 100000
  master list distance cutoff = 11.52462
  ghost atom cutoff = 11.52462
  binsize = 5.7623102, bins = 55 55 1
  1 neighbor lists, perpetual/occasional/extra = 1 0 0
  (1) pair cosine/squared, perpetual
      attributes: half, newton on
      pair build: half/bin/newton
      stencil: half/bin/2d
      bin: standard
Per MPI rank memory allocation (min/avg/max) = 8.526 | 8.526 | 8.526 Mbytes
   Step          Temp          Press          TotEng         E_pair    
         0   0.99441908    -0.013071225    0.98336998     0            
      1000   1.052877       0.0040548885   1.0411809      2.5044906e-06
      2000   0.97902644     0.0030040622   0.96849889     0.00035052091
      3000   1.0601207      0.0035583022   1.0483416      0            
      4000   1.0466423      0.0043625821   1.0350129      0            
      5000   1.0005436      0.0035020426   0.98945454     2.8061539e-05
      6000   0.97028404     0.0030784247   0.95950311     0            
      7000   0.9429228      0.0035389451   0.9342467      0.001800821  
      8000   1.070792       0.0042930144   1.0588943      0            
      9000   1.099818       0.0040939823   1.0875978      0            
     10000   1.0642281      0.0047822672   1.0522943     -0.00010900216
     11000   0.96178959     0.0044415766   0.95110304     0            
     12000   0.92900128     0.0051586733   0.91867904     0            
     13000   0.95766117     0.0033758629   0.94702049     0            
     14000   1.0652922      0.0044849628   1.0535642      0.00010858927
     15000   0.95983437     0.0040365682   0.94916954     0            
     16000   0.9641874      0.003789268    0.95103878    -0.0024354251 
     17000   1.0031004      0.0041077459   0.99159264    -0.00036222463
     18000   1.0784444      0.0035450725   1.0665787      0.00011702663
     19000   0.99807614     0.0043797361   0.98493204    -0.002054365  
     20000   0.992304       0.0048318595   0.9812784      0            
     21000   0.96940429     0.0039272489   0.95864056     7.4291756e-06
     22000   0.90206673     0.0035203604   0.89742529     0.0053815279 
     23000   0.90923446     0.0037195321   0.89913185     0            
     24000   0.94978569     0.0031829018   0.93899765    -0.00023486533
     25000   0.94824751     0.0033305596   0.93771143     0            
     26000   0.96522138     0.0045551248   0.95449669     0            
     27000   1.0049297      0.0031917027   0.99323593    -0.00052792479
     28000   1.0318397      0.0044992605   1.0196496     -0.00072515263
     29000   1.0329477      0.0038891347   1.0214705      0            
     30000   0.94503388     0.0034301041   0.93453351     0            
     31000   0.993634       0.0046343279   0.98259362     0            
     32000   1.0433566      0.0035185351   1.0317635     -2.0798642e-07
     33000   1.0198092      0.0051772813   1.008478       0            
     34000   0.96001958     0.0052467043   0.94772949    -0.0016232133 
     35000   1.0391863      0.003051152    1.0276398      0            
     36000   0.99382811     0.0045148522   0.98278558     0            
     37000   1.0135714      0.0045644569   1.0023095      0            
     38000   0.98768106     0.0045761812   0.97689202     0.0001851927 
     39000   0.90541358     0.0038987101   0.89535343     0            
     40000   1.0326222      0.004357325    1.0211487      0            
     41000   0.9460838      0.0031743917   0.93314342    -0.0024283297 
     42000   1.0505492      0.0048725944   1.0377738     -0.0011026686 
     43000   0.99326476     0.0040511822   0.98222848     0            
     44000   1.0475156      0.0042023925   1.0358765      0            
     45000   1.029778       0.004965082    1.018336       0            
     46000   1.0486483      0.0037497373   1.0369967      0            
     47000   0.986784       0.0042863844   0.97581973     0            
     48000   1.060293       0.0046650923   1.0477868     -0.00072517487
     49000   0.99796214     0.0032172955   0.98687367     0            
     50000   0.96904428     0.0040180692   0.95827712     0            
     51000   1.0095722      0.0030476355   0.99835477     0            
     52000   1.1051799      0.0041700263   1.0929258      2.5623773e-05
     53000   1.0358616      0.00378498     1.0219946     -0.0023574209 
     54000   1.0738443      0.0043993432   1.0619127      0            
     55000   0.99585789     0.0037740854   0.98355434    -0.0012384617 
     56000   1.0467085      0.0041428867   1.0350784      0            
     57000   1.0125429      0.0040963391   1.0012924      0            
     58000   0.96859252     0.0040187716   0.95783655     6.1668548e-06
     59000   1.0140345      0.0034070371   1.0027674      0            
     60000   1.0119397      0.0038364332   1.0006959      0            
     61000   1.0437931      0.0054087908   1.0321954      0            
     62000   0.98265433     0.0041031585   0.97237328     0.00063733898
     63000   1.0670616      0.0036389554   1.0552053      0            
     64000   0.98828725     0.003926101    0.97730628     0            
     65000   1.0558272      0.0043250233   1.0440958      0            
     66000   1.0366027      0.0045333792   1.0250849      0            
     67000   1.0073399      0.0047364705   0.99614724     0            
     68000   1.0013899      0.0047041148   0.99026334     0            
     69000   0.99564171     0.0046862374   0.98457903     0            
     70000   1.0409108      0.004490734    1.0293451      0            
     71000   0.98419001     0.0036239287   0.97325456     0            
     72000   1.040451       0.0051452387   1.0288904      0            
     73000   0.95860452     0.0043279069   0.94884063     0.00088727125
     74000   0.91863752     0.0037537653   0.90843044     0            
     75000   1.0243089      0.0048316517   1.0129277      0            
     76000   1.0665603      0.0041402184   1.0528631     -0.0018465808 
     77000   1.0181774      0.0050394255   1.0064401     -0.00042426559
     78000   0.98855829     0.0043795205   0.97843042     0.00085610989
     79000   1.0150923      0.0029013242   1.0038135      0            
     80000   1.0828719      0.0044932624   1.07084        0            
     81000   0.97696544     0.0044825387   0.96611027     0            
     82000   1.0200042      0.0040952675   1.0086708      0            
     83000   1.003348       0.0038907701   0.99219969     0            
     84000   0.93176885     0.0038449444   0.92141587     0            
     85000   0.94587756     0.0037883573   0.93486562    -0.00050218844
     86000   0.99614867     0.0043155556   0.98502231    -5.8046805e-05
     87000   0.95417971     0.0037022546   0.94357771     0            
     88000   1.0099001      0.0046223839   0.99621062    -0.0024683802 
     89000   0.98370534     0.0042648804   0.97059437    -0.0021809185 
     90000   0.97920913     0.0032821683   0.96748781    -0.00084122363
     91000   0.9938209      0.0038048685   0.98146592    -0.001312534  
     92000   1.019387       0.0043586563   1.0080605      0            
     93000   1.0544387      0.0043142773   1.0427227      0            
     94000   1.0108748      0.0043375399   0.99689132    -0.0027515557 
     95000   1.0112604      0.0039945423   0.99765504    -0.0023691401 
     96000   1.0461765      0.004279631    1.0322738     -0.0022784452 
     97000   0.95321547     0.0043912782   0.9416567     -0.00096748489
     98000   0.97448729     0.0051174869   0.96135051    -0.0023091432 
     99000   0.98102627     0.0043170975   0.96979957    -0.000326405  
    100000   0.98037236     0.0039153946   0.96820286    -0.0012764698 
    101000   1.1035125      0.0046119152   1.089838      -0.0014131952 
    102000   0.9722628      0.0035759484   0.96047847    -0.00098141102
    103000   1.074061       0.0037867788   1.0633999      0.0012729866 
    104000   0.96894112     0.0041346477   0.95817511     0            
    105000   0.99409949     0.0044175102   0.98297304    -8.0900828e-05
    106000   0.96787675     0.0040839588   0.95712256     0            
    107000   1.0120529      0.0034894562   0.99880217    -0.0020057164 
    108000   0.95392061     0.0029988095   0.94104481    -0.0022766874 
    109000   0.98069881     0.0039449799   0.96814243    -0.0016597223 
    110000   1.0623011      0.0046415421   1.0490202     -0.0014775426 
    111000   1.0356694      0.0033234741   1.0222411     -0.0019208386 
    112000   1.0175852      0.0035681038   1.0062787      0            
    113000   1.0218032      0.0050085621   1.0104498      0            
    114000   1.026739       0.0045881265   1.0153319      1.156366e-06 
    115000   1.1231856      0.0039030811   1.1107057      0            
    116000   1.0336455      0.004035152    1.0221605      0            
    117000   1.0268028      0.0047690959   1.0153939      0            
    118000   1.0663364      0.0044143962   1.0544882      0            
    119000   1.0470693      0.0040236625   1.0354778      4.263887e-05 
    120000   1.0308621      0.0046136726   1.0195349      0.00012684395
    121000   1.0856017      0.0058048186   1.0735925      5.2994659e-05
    122000   0.97459245     0.0038453038   0.96356703    -0.00019660863
    123000   1.0488355      0.0041307695   1.0371818      0            
    124000   0.96819672     0.0053768944   0.95743897     0            
    125000   0.98852907     0.003212042    0.97754542     0            
    126000   1.0102189      0.0045663361   0.99899422     0            
    127000   0.99551729     0.004652983    0.98445599     0            
    128000   1.0598138      0.0043721068   1.0480381      0            
    129000   1.0030233      0.0037432972   0.99187864     0            
    130000   1.0026152      0.0047879382   0.99357943     0.0021043859 
    131000   1.0085518      0.0042021481   0.99734567     0            
    132000   0.94655391     0.003887319    0.93603664     0            
    133000   1.0138751      0.0028869417   1.0026098      0            
    134000   1.0522641      0.0041442863   1.0403451     -0.00022721502
    135000   1.0450207      0.0037640274   1.0334093      0            
    136000   0.91414644     0.0038338799   0.90053093    -0.0034583293 
    137000   0.98114533     0.004121464    0.96692228    -0.0033214379 
    138000   0.97093001     0.004578708    0.95831515    -0.0018267421 
    139000   0.97493472     0.003396125    0.95928554    -0.0048165784 
    140000   0.99085107     0.0032499661   0.97791408    -0.001927536  
    141000   0.9872619      0.0033522021   0.97402749    -0.0022648354 
    142000   1.0478588      0.0043014937   1.0341892     -0.0020266718 
    143000   0.91695532     0.0045696609   0.9043136     -0.0024533302 
    144000   1.0488396      0.0045976518   1.0368744     -0.00031139746
    145000   0.91138523     0.0038072005   0.89991437    -0.0013443596 
    146000   0.94266274     0.0034356815   0.93209366    -9.50488e-05  
    147000   1.0351291      0.0056680068   1.0211794     -0.002448281  
    148000   0.98571535     0.0039812199   0.97737876     0.0026158058 
    149000   0.91440738     0.0040760223   0.90422751    -1.9796864e-05
    150000   1.0082528      0.0048263102   0.99340101    -0.003649004  
    151000   0.97726044     0.004155556    0.96382421    -0.0025777749 
    152000   1.0655344      0.004542157    1.0531784     -0.00051671461
    153000   0.99830456     0.0043200973   0.9848107     -0.0024015878 
    154000   1.0294025      0.0049408815   1.0175855     -0.00037919579
    155000   1.1101857      0.0047885259   1.0978503      0            
    156000   1.0787339      0.0037830989   1.0640159     -0.0027319918 
    157000   0.96805539     0.0034698972   0.95262572    -0.0046734937 
    158000   1.0420364      0.0042519373   1.0279987     -0.0024595622 
    159000   0.98499407     0.0030568269   0.97215779    -0.0018918966 
    160000   1.0039212      0.0045616938   0.99276653     0            
    161000   0.95738513     0.0040612425   0.94429776    -0.0024497606 
    162000   1.0515111      0.0043365435   1.0374452     -0.0023824591 
    163000   1.0214982      0.005004362    1.0090181     -0.0011301134 
    164000   1.0289695      0.0048473043   1.0161843     -0.0013521866 
    165000   1.0587019      0.0041405894   1.0451312     -0.001807273  
    166000   0.94122275     0.0028944739   0.93076472     0            
    167000   1.0152062      0.0034330004   1.0039261      0            
    168000   1.0952897      0.0048857119   1.0831198      0            
    169000   1.0323547      0.0041591064   1.0208841      0            
    170000   0.98972575     0.0037833492   0.97873215     3.3518813e-06
    171000   1.0123716      0.004130716    1.0011231      0            
    172000   1.0655041      0.0054259643   1.0536784      1.3155125e-05
    173000   1.008236       0.0043991387   0.9970334      0            
    174000   1.0701242      0.0034252819   1.0559787     -0.0022552393 
    175000   1.0002206      0.0047764051   0.98874765    -0.00035943539
    176000   0.9511895      0.0043338564   0.93817594    -0.0024447884 
    177000   0.99067795     0.004482095    0.97978164     0.00011122363
    178000   0.96736559     0.0056110474   0.95661708     0            
    179000   1.0154759      0.004658847    1.0041928      0            
    180000   0.95987038     0.0044573646   0.94797434    -0.0012308177 
    181000   0.99732056     0.0035756099   0.98360244    -0.0026367845 
    182000   0.99888996     0.0041977705   0.98589751    -0.0018936705 
    183000   1.0359789      0.0035519028   1.0244681      0            
    184000   1.068134       0.0041463501   1.0542685     -0.0019974172 
    185000   1.0128066      0.0041920321   0.99868295    -0.0028702821 
    186000   0.97490375     0.003479048    0.96407149     0            
    187000   0.98879894     0.004910147    0.97565881    -0.0021534825 
    188000   1.0453017      0.0042709364   1.0336872      0            
    189000   0.91219107     0.0039772917   0.90180106    -0.00025454949
    190000   1.0686858      0.0043496893   1.0567928     -1.8771211e-05
    191000   1.0551118      0.0046587503   1.0433883      0            
    192000   1.0454336      0.0040383668   1.0334464     -0.00037129793
    193000   1.0134561      0.005389842    1.0021955      0            
    194000   0.98671571     0.0034702214   0.9757522      0            
    195000   1.0505936      0.0040582662   1.0389203      0            
    196000   1.049604       0.0046889982   1.0360222     -0.0019195298 
    197000   0.98046675     0.0043448149   0.96772954    -0.0018431321 
    198000   0.92542782     0.004216655    0.91373539    -0.0014098936 
    199000   0.96298619     0.004277891    0.95010109    -0.0021852516 
    200000   0.99445904     0.0040134758   0.98132805    -0.0020814414 
    201000   1.008603       0.0042595076   0.99739664     2.981426e-07 
    202000   1.0142653      0.005254002    1.00251       -0.00048570189
    203000   0.95486103     0.0048492119   0.94703519     0.0027837213 
    204000   0.96329737     0.0033943753   0.95120736    -0.0013867099 
    205000   0.97343873     0.0036932688   0.96262274     0            
    206000   0.95734891     0.0033085968   0.9467117      0            
    207000   1.0478117      0.0039689758   1.036203       3.3698039e-05
    208000   0.96916484     0.0044562874   0.95839634     0            
    209000   1.0025588      0.0041549665   0.98792976    -0.0034895183 
    210000   1.0127968      0.0053437635   1.0013826     -0.00016093741
    211000   1.0550945      0.0043165423   1.0433712      0            
    212000   0.99050774     0.004004421    0.97950209     0            
    213000   0.96648548     0.0037141502   0.95382175    -0.0019250056 
    214000   1.0314138      0.0033181158   1.0178184     -0.0021352222 
    215000   0.99365061     0.0041969551   0.98040417    -0.0022058747 
    216000   0.98401752     0.0045851252   0.97362026     0.00053626983
    217000   0.95350735     0.0041300689   0.940994      -0.0019188189 
    218000   1.0110298      0.0041012305   1.0017651      0.0019689775 
    219000   0.99600833     0.0046310822   0.98494157     0            
    220000   1.0684092      0.0040028782   1.056538       0            
    221000   1.0932285      0.0042065294   1.0792732     -0.0018082694 
    222000   1.0137286      0.0048759623   1.002465       0            
    223000   0.95749851     0.0047169583   0.94685964     0            
    224000   0.99652699     0.0039866934   0.98545447     0            
    225000   1.0127793      0.0053849253   1.0015262      0            
    226000   0.9604961      0.0038762365   0.94806061    -0.0017633096 
    227000   1.0651603      0.0043166409   1.0508792     -0.002446066  
    228000   1.017214       0.004085747    1.0065279      0.000616269  
    229000   1.080634       0.0044778525   1.0683037     -0.00032321183
    230000   0.98366806     0.0038113264   0.97222252    -0.00051589047
    231000   1.0306499      0.0042031935   1.0191982      0            
    232000   1.0632236      0.0041693012   1.05141        0            
    233000   1.002695       0.0040939129   0.99125264    -0.00030130363
    234000   0.93231107     0.0035954598   0.9201867     -0.0017653657 
    235000   0.98825482     0.0040320644   0.97729262     1.8406124e-05
    236000   1.0898505      0.0048800518   1.0777411      0            
    237000   1.0797595      0.0045595094   1.0645467     -0.0032155535 
    238000   0.9960498      0.0046528574   0.98293197    -0.0020506064 
    239000   0.90500185     0.0041651844   0.8948825     -6.3773803e-05
    240000   0.99245445     0.0050175992   0.98142718     0            
    241000   0.92236241     0.0039642039   0.91211394     0            
    242000   0.97675654     0.0038036488   0.96589918    -4.5077604e-06
    243000   0.93600007     0.003562459    0.92336144    -0.002238629  
    244000   0.95552173     0.0035104806   0.9454922      0.00058737669
    245000   0.95233926     0.0039442987   0.93930207    -0.0024556457 
    246000   0.96905521     0.0030121653   0.95709329    -0.0011946332 
    247000   1.1020082      0.004919579    1.0897637      0            
    248000   0.9772906      0.0036695971   0.96643182     0            
    249000   1.078361       0.0039864782   1.0664986      0.0001193648 
    250000   0.98344854     0.0043620314   0.97208595    -0.00043538087
    251000   0.94535119     0.0037770778   0.93238154    -0.0024657536 
    252000   0.95759048     0.0037335863   0.94695059     0            
    253000   0.99326613     0.0039761899   0.98142782    -0.00080201592
    254000   1.0262205      0.0033980887   1.014851       3.2965938e-05
    255000   0.94151399     0.0038471904   0.92860341    -0.0024493168 
    256000   0.93441762     0.0038233219   0.92402559    -9.6120063e-06
    257000   1.0018516      0.0033594637   0.99071989     0            
    258000   1.0211007      0.0039519833   1.0097551      0            
    259000   1.0298117      0.0043100941   1.0183693      0            
    260000   0.91963282     0.0033950237   0.90941468     0            
    261000   1.0031496      0.0036222199   0.99200347     0            
    262000   0.95402131     0.0032548069   0.94342107     0            
    263000   0.9408835      0.0035028291   0.93042924     0            
    264000   0.99693391     0.0042859257   0.98585686     0            
    265000   1.0423305      0.0041717322   1.0307491      0            
    266000   0.98117517     0.0029794825   0.97588499     0.0056117635 
    267000   0.92125723     0.0038864201   0.91102104     0            
    268000   0.99651275     0.0033917348   0.98544038     0            
    269000   0.97214095     0.0045065678   0.96133938     0            
    270000   1.0481187      0.0041487735   1.0367938      0.00032086629
    271000   1.0227965      0.0044248917   1.0114321      0            
    272000   0.94964248     0.0033234211   0.93909089     0            
    273000   1.0454172      0.0044404845   1.0338014      0            
    274000   1.0000138      0.0043224105   0.98890251     0            
    275000   0.98292064     0.0040472224   0.97028972    -0.0017095872 
    276000   0.9944361      0.0049313133   0.98359142     0.00020460608
    277000   0.88801868     0.0034884662   0.87457423    -0.0035775775 
    278000   1.0367058      0.0042137122   1.0241406     -0.0010462496 
    279000   0.96842131     0.003549855    0.95321961    -0.0044414639 
    280000   1.0072336      0.0032971801   0.99604212     0            
    281000   1.0677813      0.0037028569   1.055917       0            
    282000   1.0454573      0.0038871492   1.0338411      0            
    283000   0.91121656     0.0032800705   0.90109193     0            
    284000   1.0309248      0.0051433501   1.01947        0            
    285000   1.0380695      0.0039108398   1.0265354      0            
    286000   1.0032904      0.0038118645   0.99260988     0.00046716476
    287000   1.0192265      0.0043785751   1.0079017      0            
    288000   0.94275346     0.0040624168   0.93467179     0.002393367  
    289000   0.95608235     0.0033297102   0.94545921     0            
    290000   1.0084228      0.0036492851   0.99721807     0            
    291000   0.96112867     0.0042537316   0.95044946     0            
    292000   0.99210395     0.0046550776   0.98108057     0            
    293000   0.99333096     0.003569874    0.98229395     0            
    294000   0.96865942     0.0040388479   0.95789653     0            
    295000   1.0510271      0.0045797331   1.039349       0            
    296000   0.91397795     0.0035663582   0.90185133    -0.0019713161 
    297000   1.0222775      0.00445865     1.0086816     -0.0022373223 
    298000   1.0702285      0.0040505575   1.0583371      0            
    299000   0.94568303     0.0037667665   0.93517544     0            
    300000   1.008269       0.0040507714   0.99706604     0            
    301000   1.016262       0.0039682634   1.0049702      0            
    302000   0.97231607     0.0039844165   0.96151256     0            
    303000   1.0017946      0.0038137381   0.99168907     0.0010255092 
    304000   0.98827213     0.0048662678   0.97729133     0            
    305000   1.006357       0.0053755005   0.995209       3.3791537e-05
    306000   0.99513388     0.0045890895   0.98407684     0            
    307000   1.0315982      0.0040395612   1.020136       0            
    308000   0.98218682     0.0034165822   0.97127363     0            
    309000   0.91544288     0.0037721205   0.90527129     0            
    310000   0.99437778     0.0037929186   0.98332913     0            
    311000   0.99707206     0.0046812796   0.98599348     0            
    312000   1.0421754      0.0042592684   1.0305956      0            
    313000   1.004405       0.0038037482   0.99324499     0            
    314000   0.92749219     0.0037636586   0.91718673     0            
    315000   1.0761443      0.0047008401   1.0641871      0            
    316000   0.95850299     0.0034980929   0.94785296     0            
    317000   0.93751771     0.0028129307   0.92749465     0.00039380816
    318000   1.0450007      0.0028888054   1.0333896      0            
    319000   1.0506837      0.004532071    1.0390094      0            
    320000   0.97501832     0.0039825524   0.96418479     0            
    321000   0.91919003     0.0043393885   0.90897681     0            
    322000   1.0089703      0.0033982256   0.99775948     0            
    323000   1.0769666      0.0036852522   1.0650003      0            
    324000   0.94222625     0.0047338646   0.93175706     0            
    325000   0.98855673     0.0040936587   0.97757277     0            
    326000   1.0772693      0.0030736355   1.0652996      0            
    327000   1.0222817      0.0044141602   1.0109231      0            
    328000   1.0181423      0.0036644295   1.0068903      6.0653312e-05
    329000   0.98603084     0.0047084129   0.97507495     0            
    330000   1.0657715      0.0047618097   1.0539296      0            
    331000   1.014932       0.0043273049   1.0036549      0            
    332000   1.0592882      0.0032293245   1.0475183      0            
    333000   1.0074146      0.0044784483   0.99622109     0            
    334000   0.99863118     0.0035747558   0.98762274     8.7459418e-05
    335000   0.94607022     0.0042064452   0.93555833     0            
    336000   1.0384126      0.0052256127   1.0245547     -0.0023200137 
    337000   1.0649233      0.0052035426   1.0530908      0            
    338000   1.056006       0.0042362216   1.0442726      0            
    339000   1.0433857      0.0053906853   1.0317925      0            
    340000   1.0348194      0.0040292239   1.0233214      0            
    341000   0.97832504     0.0047884899   0.96745477     0            
    342000   0.94984365     0.0032388797   0.93928983     0            
    343000   1.0587628      0.0041941599   1.0461835     -0.00081523614
    344000   1.1256812      0.0051726708   1.1116744     -0.0014992306 
    345000   0.95161564     0.0031829736   0.94104213     0            
    346000   1.0101019      0.0043310618   0.99887855     0            
    347000   1.0976839      0.0053253744   1.0854874      0            
    348000   1.0125075      0.0041103479   1.0012574      0            
    349000   1.0167249      0.003967282    1.0061299      0.00070193949
    350000   0.90043515     0.0034921505   0.88796438    -0.002465931  
    351000   0.96560181     0.0035238555   0.95734824     0.0024753425 
    352000   1.1072779      0.0041690807   1.093706      -0.0012687647 
    353000   0.9924144      0.0039646006   0.97851164    -0.0028759402 
    354000   0.93845908     0.0040206279   0.92493003    -0.0031017287 
    355000   0.99518824     0.0045280914   0.98413059     0            
    356000   0.99539234     0.0039838885   0.98433242     0            
    357000   1.0047793      0.0037214048   0.99361509     0            
    358000   0.95532234     0.0038975056   0.94470764     0            
    359000   0.99065024     0.0041615913   0.97964301     0            
    360000   0.97861757     0.0047009353   0.96798631     0.00024225884
    361000   1.0578928      0.0041326285   1.0461384      0            
    362000   1.0483508      0.0044331922   1.0357687     -0.00093372416
    363000   1.0024926      0.0042175651   0.99112833    -0.00022548511
    364000   0.94971692     0.0039010071   0.93663684    -0.0025276705 
    365000   0.9879584      0.0049054426   0.97698109     0            
    366000   1.006268       0.0051562548   0.99508723     0            
    367000   1.0106531      0.0046902597   0.99942364     0            
    368000   0.94873141     0.0039071805   0.93818995     0            
    369000   0.88296503     0.0042144376   0.87315431     0            
    370000   0.96817096     0.0040706703   0.95923572     0.001822223  
    371000   1.0230556      0.0048905039   1.0120879      0.00039959285
    372000   1.0457492      0.0050411826   1.0341298      0            
    373000   0.97940302     0.0043082736   0.96852076     0            
    374000   0.98472719     0.0045603255   0.97378578     0            
    375000   1.0364533      0.0035727922   1.0255187      0.00058162509
    376000   0.97277678     0.0045215932   0.95974246    -0.0022256893 
    377000   0.95073546     0.0035312364   0.94077024     0.0005985093 
    378000   1.0411906      0.004743066    1.0300653      0.00044344709
    379000   1.0006662      0.0043285818   0.9893769     -0.00017077892
    380000   0.9546877      0.0039955724   0.94408006     0            
    381000   0.99965459     0.0046581197   0.98854732     0            
    382000   0.98593551     0.0035550573   0.97498067     0            
    383000   1.0604019      0.0042366921   1.0498246      0.0012049904 
    384000   1.0440623      0.0049721146   1.0323591     -0.00010257765
    385000   0.9934127      0.0033780149   0.98237478     0            
    386000   1.0645581      0.0043523138   1.0527297      0            
    387000   0.9406         0.0040748266   0.93014889     0            
    388000   0.97757514     0.0041391999   0.96671319     0            
    389000   1.0111471      0.0051244538   0.9972531     -0.0026590707 
    390000   1.0015304      0.004207395    0.98804529    -0.0023569978 
    391000   1.0958697      0.004158815    1.0811733     -0.0025199748 
    392000   0.9956657      0.0043538879   0.98460275     0            
    393000   1.0370354      0.0039516303   1.0255127      0            
    394000   1.0716762      0.0046988426   1.0597686      0            
    395000   1.0257102      0.0038621301   1.0134386     -0.00087481106
    396000   0.93961408     0.0040320911   0.92917392     0            
    397000   1.0011289      0.0034076781   0.99246202     0.002456727  
    398000   0.96281493     0.0040268561   0.95211699     0            
    399000   0.92374104     0.003508306    0.91347725     0            
    400000   1.0746711      0.0044317279   1.0627303      0            
    401000   1.0597414      0.0048224369   1.0468776     -0.0010888868 
    402000   0.94603838     0.0029019129   0.93577515     0.00024830897
    403000   1.0401173      0.0044752561   1.0309321      0.0023716592 
    404000   0.97334656     0.0043674619   0.9625316      0            
    405000   1.0576586      0.0040612706   1.0460893      0.0001825498 
    406000   1.0243184      0.004578048    1.0129371      0            
    407000   1.0104025      0.0045389524   1.0008319      0.0016560992 
    408000   1.0155619      0.004982317    1.0031632     -0.0011146854 
    409000   1.0887348      0.0048867132   1.074898      -0.0017397892 
    410000   0.97362407     0.0043028111   0.96280602     0            
    411000   0.93882628     0.0042423633   0.92891471     0.00051983304
    412000   0.98941204     0.0054821887   0.97841857     0            
    413000   1.0419344      0.0041426137   1.0303574      0            
    414000   0.97895428     0.0041485862   0.96807701     0            
    415000   0.98903381     0.0030803101   0.97804455     0            
    416000   1.0545768      0.0046741384   1.0428593      0            
    417000   0.94055857     0.004371442    0.93010792     0            
    418000   1.0359486      0.0046620752   1.0244381      0            
    419000   0.90616523     0.0030399893   0.89609673     0            
    420000   0.97290855     0.0034371407   0.96211236     1.3905796e-05
    421000   1.0746234      0.004399678    1.062689       5.8668612e-06
    422000   1.0220899      0.0032217525   1.0107333      0            
    423000   0.97949104     0.0044158583   0.96657842    -0.0020293915 
    424000   0.9938132      0.0040013336   0.98247129    -0.00029954453
    425000   1.0207102      0.0049269835   1.0093689      0            
    426000   0.98886118     0.0040547055   0.97787384     0            
    427000   0.93125542     0.003522278    0.92090813     0            
    428000   1.038096       0.0041257239   1.0265616      0            
    429000   0.921151       0.0041687412   0.91091599     0            
    430000   0.9784024      0.0032581789   0.96753126     0            
    431000   0.96992762     0.0032345031   0.95915065     0            
    432000   1.0421369      0.0044650743   1.0291443     -0.0014133727 
    433000   0.91251613     0.0021165458   0.90237706     0            
    434000   0.96065555     0.0036570726   0.9499816      0            
    435000   1.038462       0.0040165922   1.0261096     -0.00081385914
    436000   0.99073741     0.0039236938   0.97776305    -0.0019661639 
    437000   1.0431068      0.0045111822   1.0315167      0            
    438000   0.92777636     0.0038481677   0.9165336     -0.0009341347 
    439000   1.0361438      0.0049687828   1.0241676     -0.00046342125
    440000   1.0216945      0.0040413177   1.0103423      0            
    441000   1.0099449      0.0051440921   0.99881871     9.5376725e-05
    442000   0.99281007     0.0038018904   0.98177885     0            
    443000   1.0604137      0.0045461113   1.0486313      0            
    444000   0.97895315     0.0041752186   0.9656072     -0.0024686961 
    445000   1.0224029      0.0053071664   1.0076701     -0.0033728261 
    446000   1.0099684      0.0038131519   0.99874656     0            
    447000   1.0671908      0.003447147    1.0518206     -0.0035125241 
    448000   0.94798372     0.0041416741   0.93646008    -0.00099048728
    449000   0.9214297      0.0034052793   0.9087723     -0.0024192973 
    450000   1.0007174      0.0047103293   0.9877154     -0.0018829025 
    451000   0.91395519     0.0036953295   0.90253791    -0.0012622263 
    452000   1.0293614      0.0040376399   1.0155506     -0.002373495  
    453000   0.99924178     0.0053173798   0.98758381    -0.00055528394
    454000   1.0132522      0.0035303559   1.0019938      0            
    455000   0.96879965     0.0029242771   0.95803521     0            
    456000   0.97534776     0.0034626554   0.96452104     1.0475326e-05
    457000   1.1112082      0.0051588281   1.0988614      0            
    458000   1.0261974      0.0051391445   1.0149291      0.00013389053
    459000   0.97638305     0.0045839371   0.96319441    -0.0023399463 
    460000   0.94764244     0.0031912671   0.93520381    -0.0019092741 
    461000   1.0862218      0.0044494364   1.0741569      4.2764761e-06
    462000   0.95853918     0.004033386    0.94801995     0.00013120209
    463000   0.97331536     0.0039712599   0.96250075     0            
    464000   0.89545152     0.0043032663   0.88550206     0            
    465000   0.99606056     0.0045140931   0.98497984    -1.3381835e-05
    466000   0.95074239     0.0039973153   0.94017859     0            
    467000   0.9732489      0.0035685103   0.96053545    -0.0018995714 
    468000   0.99533614     0.0034438377   0.98494463     0.00066778419
    469000   1.0795326      0.0046796827   1.0675378      0            
    470000   0.98354404     0.0039702712   0.97240817    -0.00020760218
    471000   0.97513364     0.0045281923   0.96429882     0            
    472000   1.0499042      0.0033285287   1.0382386      0            
    473000   1.0673436      0.0042073717   1.0556357      0.00015141432
    474000   1.0228123      0.0041057094   1.0114478      0            
    475000   1.0259074      0.0038345      1.0133633     -0.0011450776 
    476000   1.0084638      0.0050681361   0.99630836    -0.00095027795
    477000   1.0775711      0.0051514434   1.0631484     -0.0024496131 
    478000   0.94301998     0.0038622554   0.93216993    -0.00037205302
    479000   1.0052622      0.0041103233   0.99409266     0            
    480000   1.0045459      0.0029587614   0.99298379    -0.00040047755
    481000   1.0331179      0.004961201    1.0216388      0            
    482000   1.1172059      0.0044436891   1.107405       0.002612518  
    483000   0.95559041     0.0040616464   0.94530526     0.00033252692
    484000   1.0116877      0.0047463032   0.99942202    -0.0010247167 
    485000   1.0124972      0.0032335442   0.99681747    -0.0044297842 
    486000   0.98119709     0.0045531399   0.97000597    -0.00028892976
    487000   0.98665283     0.0031510236   0.97213873    -0.0035512897 
    488000   0.96677626     0.003303332    0.9533824     -0.0026518999 
    489000   0.98191579     0.0034857915   0.97100562     0            
    490000   1.0802181      0.0052470378   1.0661333     -0.0020823383 
    491000   0.99192318     0.0043576794   0.98090181     0            
    492000   0.97867039     0.0047263102   0.97019741     0.0024011304 
    493000   1.0039943      0.0041430135   0.99275584    -8.2945072e-05
    494000   0.99970617     0.0044096971   0.98679206    -0.0018062644 
    495000   0.94932084     0.0040660042   0.93810301    -0.00066982052
    496000   0.95650912     0.0038351466   0.94588124     0            
    497000   1.0265733      0.0037923112   1.0151669      0            
    498000   1.0248462      0.0025913848   1.0113348     -0.0021242773 
    499000   1.0576411      0.0039557285   1.0438003     -0.0020891842 
    500000   0.97807041     0.004619662    0.96413377    -0.0030691973 
    501000   1.0656156      0.0043253665   1.0514165     -0.0023588422 
    502000   1.038073       0.0040943734   1.0219492     -0.0045896773 
    503000   0.98862054     0.0044474496   0.97765452     1.865732e-05 
    504000   0.99218344     0.0043001635   0.97829843    -0.0028607487 
    505000   0.95944346     0.0035232173   0.9483199     -0.0004630837 
    506000   1.0031661      0.0040578367   0.99539717     0.0033773676 
    507000   1.0322995      0.0035479721   1.0187302     -0.0020993374 
    508000   0.96295831     0.0025313591   0.95042817    -0.0018306045 
    509000   1.010639       0.0048834215   0.99741183    -0.0019978179 
    510000   1.0389748      0.0035389022   1.0249866     -0.0024440919 
    511000   1.0049284      0.0050361109   0.99144359    -0.0023189169 
    512000   1.0582491      0.0038567956   1.0445225     -0.0019682492 
    513000   1.0465774      0.0044348161   1.0358395      0.00089076471
    514000   1.0672293      0.0036737255   1.0553712      0            
    515000   0.99339336     0.0033145143   0.97849804    -0.0038576131 
    516000   1.0229433      0.0042069497   1.0115773      0            
    517000   1.0208805      0.0040627679   1.0095373      0            
    518000   0.98988272     0.003149185    0.97888402     0            
    519000   0.96474189     0.004111051    0.95402254     0            
    520000   1.0809257      0.0037320126   1.067164      -0.0017514293 
    521000   0.93810943     0.0038473901   0.92761147    -7.453017e-05 
    522000   0.91712457     0.0035677096   0.9056637     -0.0012705999 
    523000   1.0331555      0.0046595881   1.0216163     -5.9669707e-05
    524000   1.0891497      0.0044890868   1.077048       0            
    525000   0.97986181     0.0043606538   0.968355      -0.00061945319
    526000   0.97383424     0.0035594701   0.96225747    -0.00075638982
    527000   1.053445       0.0046472944   1.0393341     -0.0024059371 
    528000   1.019379       0.0051080539   1.0072953     -0.00075732995
    529000   0.95334475     0.0045361653   0.94066826    -0.0020837664 
    530000   0.9550215      0.0034486819   0.94256221    -0.0018479326 
    531000   1.0055338      0.0044329641   0.99434892    -1.229357e-05 
    532000   0.98428986     0.0035947069   0.97335331     0            
    533000   1.0175527      0.0049266417   1.004282      -0.0019645253 
    534000   0.92250664     0.0035274286   0.91100302    -0.0012535458 
    535000   1.0649959      0.0041508809   1.0541042      0.00094158818
    536000   0.98250564     0.0043454784   0.97158891     0            
    537000   1.0339966      0.0042577836   1.0201702     -0.0023376127 
    538000   1.0096669      0.0039337898   0.99845178     3.3611444e-06
    539000   0.96939594     0.004589137    0.96063801     0.0020131331 
    540000   1.0161738      0.0045438782   1.004883       0            
    541000   1.0511567      0.0041347326   1.0401888      0.00071153022
    542000   1.001141       0.0037957684   0.99001719     0            
    543000   1.0447983      0.0038320163   1.0353671      0.0021776973 
    544000   1.0020649      0.0035942723   0.9887386     -0.0021922559 
    545000   1.0058308      0.0048736602   0.99465487     0            
    546000   0.98356669     0.0037039879   0.97263817     0            
    547000   1.0275359      0.0045842538   1.0161601      4.1238342e-05
    548000   1.0535841      0.0038365634   1.0418776      0            
    549000   1.0125699      0.0045991964   1.0013191      0            
    550000   1.1170045      0.0052092081   1.1045934      0            
    551000   0.95190384     0.0041493917   0.93944452    -0.0018826129 
    552000   0.9289658      0.0041789583   0.91864396     0            
    553000   1.0882709      0.0044795836   1.076179       0            
    554000   1.001227       0.0034283926   0.99010229     0            
    555000   1.003069       0.0048983563   0.99192382     0            
    556000   1.0299155      0.0039778311   1.018472       0            
    557000   1.0755955      0.0037598923   1.0636445      0            
    558000   0.97683226     0.0043390617   0.96418686    -0.0017917098 
    559000   1.007984       0.0038050362   0.99540358    -0.001380565  
    560000   1.0281786      0.0057577273   1.01668       -7.4433958e-05
    561000   1.0337524      0.0040203531   1.0198269     -0.00243935   
    562000   0.98733182     0.003306072    0.97636147     0            
    563000   0.99150224     0.0041711256   0.98048555     0            
    564000   1.0477107      0.0040466098   1.0346758     -0.0013936522 
    565000   0.96957228     0.0047317139   0.9587455     -5.3746536e-05
    566000   1.0446281      0.0040155759   1.032979      -4.2158843e-05
    567000   0.93427584     0.003246999    0.92150514    -0.0023898639 
    568000   0.97578131     0.003845208    0.96791757     0.0029782784 
    569000   0.99109927     0.0031069203   0.97824229    -0.0018447687 
    570000   1.0140976      0.0050142281   1.001182      -0.0016478143 
    571000   1.0366728      0.0025304866   1.0251542      0            
    572000   1.0061743      0.0042852438   0.99499456     0            
    573000   1.0377787      0.0048217695   1.0246771     -0.0015707237 
    574000   1.0272947      0.0049770531   1.0162339      0.00035362222
    575000   1.1026299      0.0057198334   1.0903309     -4.7541279e-05
    576000   1.0127895      0.0035639601   0.99906878    -0.0024674562 
    577000   1.0389436      0.0035748365   1.0254446     -0.0019552032 
    578000   0.96643538     0.003339325    0.95357479    -0.0021224149 
    579000   0.94662953     0.0035516141   0.93611142     0            
    580000   0.84876117     0.0034927836   0.83687643    -0.0024540567 
    581000   0.99997742     0.0045157192   0.98886656     0            
    582000   1.079355       0.0044451595   1.0671689     -0.0001933161 
    583000   1.0683733      0.0051500243   1.0602026      0.0037000489 
    584000   0.95673252     0.0029844902   0.94610216     0            
    585000   0.87181722     0.0028603214   0.85976846    -0.0023618925 
    586000   1.0131425      0.0046630651   1.0011427     -0.00074263905
    587000   1.0815537      0.0039060451   1.0695422      5.7418965e-06
    588000   1.0020864      0.0046097986   0.99095212     0            
    589000   1.0968326      0.0043844252   1.0828306     -0.0018149694 
    590000   1.0153801      0.0046503981   1.0040981      0            
    591000   1.0926727      0.0057700379   1.0805319      0            
    592000   0.8499637      0.0036684451   0.84051965     0            
    593000   1.0558507      0.0038087374   1.0441191      0            
    594000   0.97219363     0.0045790229   0.96172975     0.00033827556
    595000   0.95370076     0.0038962191   0.94310408     0            
    596000   1.0156958      0.0046147244   1.0044103      0            
    597000   1.0442639      0.0041685403   1.0326609      0            
    598000   1.0210626      0.0040189501   1.0072563     -0.0024610772 
    599000   0.99681263     0.0033963746   0.98573693     0            
    600000   1.103684       0.0044505269   1.0914209      0            
    601000   1.0058591      0.0043991975   0.99468291     0            
    602000   1.0220708      0.0044938358   1.0107145      0            
    603000   0.93840458     0.0024271273   0.92797786     0            
    604000   0.91995641     0.0033799692   0.91032882     0.00059414291
    605000   0.96936036     0.0042253193   0.95858968     0            
    606000   1.0109936      0.0046596513   0.99976076     4.6362236e-07
    607000   0.99801582     0.0036162006   0.98692676     0            
    608000   1.0477787      0.0037911061   1.0361367      0            
    609000   0.96871677     0.0043252883   0.95795325     0            
    610000   0.98443361     0.0044692607   0.97349545     0            
    611000   0.9460877      0.0041575365   0.93557561     0            
    612000   1.0062859      0.0051118327   0.99510492     0            
    613000   1.0108591      0.0039827729   0.99962734     0            
    614000   1.0221438      0.0044751541   1.0107867      0            
    615000   1.053199       0.0042772526   1.0414968      0            
    616000   1.0605714      0.003888925    1.0487873      0            
    617000   0.91725342     0.0027514405   0.90672545    -0.00033626539
    618000   0.98501483     0.0034777129   0.97250259    -0.0015676293 
    619000   1.0746769      0.0046763108   1.0627361      0            
    620000   0.9778287      0.0036792183   0.96696394     0            
    621000   0.94786895     0.0041322101   0.93733707     0            
    622000   0.89989416     0.0034670956   0.88745938    -0.0024359611 
    623000   0.92201054     0.0037463987   0.91463179     0.002865818  
    624000   1.0248078      0.003588398    1.0134613      4.0284856e-05
    625000   0.99868501     0.0037643752   0.98723995    -0.00034855965
    626000   1.0196185      0.0036120003   1.0062899     -0.0019995275 
    627000   1.0503774      0.0042337671   1.0368537     -0.0018528074 
    628000   1.0310035      0.0047427334   1.0195479      0            
    629000   0.9644186      0.00434977     0.95370284     0            
    630000   1.0365451      0.0043383182   1.0242514     -0.0007765546 
    631000   0.97183533     0.004031994    0.96103716     0            
    632000   1.0211821      0.004042694    1.0099469      0.00011123627
    633000   1.0206218      0.0045817879   1.0092815      0            
    634000   1.0422757      0.0050851826   1.0295656     -0.0011293165 
    635000   1.0089467      0.0044090945   1.0000324      0.0022962125 
    636000   0.98116421     0.0043986703   0.97026238     0            
    637000   1.0321542      0.0045639944   1.0207397      5.383044e-05 
    638000   1.025786       0.0041393545   1.0138387     -0.00054967843
    639000   1.0090607      0.0043127627   0.99582797    -0.0020209888 
    640000   0.96114839     0.0034034689   0.95046897     0            
    641000   1.0702473      0.0043965887   1.0583557      0            
    642000   0.90660527     0.0047990397   0.89653187     0            
    643000   0.99540749     0.0038545208   0.98704584     0.0026984387 
    644000   0.95368198     0.0038014402   0.94101243    -0.0020730774 
    645000   0.95174858     0.004005516    0.94117747     3.8721505e-06
    646000   0.97290721     0.0040959816   0.96213714     4.0013261e-05
    647000   1.0257829      0.0041332159   1.0143853      0            
    648000   1.0235772      0.0040858591   1.0127224      0.00051832539
    649000   0.99255102     0.0034309545   0.98230713     0.00078445091
    650000   1.0147336      0.0038123714   1.003402      -5.678393e-05 
    651000   0.91918472     0.0039613626   0.90897156     0            
    652000   1.0745833      0.0047852276   1.0626435      0            
    653000   1.0334853      0.0048440299   1.0285259      0.0065238033 
    654000   1.0425079      0.0046617225   1.0309245      0            
    655000   1.0095578      0.0035504498   0.99834045     0            
    656000   1.0116828      0.0038627055   1.0000546     -0.00038722762
    657000   1.0032728      0.003558847    0.99134843    -0.00077691902
    658000   0.95608807     0.004660087    0.94546487     0            
    659000   1.1113773      0.0040519992   1.0985906     -0.00043807161
    660000   1.0462783      0.0033658137   1.034653       0            
    661000   1.1081453      0.0042075653   1.0958325      0            
    662000   1.0285926      0.0046433668   1.0171638      0            
    663000   1.0614288      0.0047465402   1.0496352      0            
    664000   0.89896767     0.0030392749   0.88905731     7.8165041e-05
    665000   0.99956059     0.0045714329   0.98845436     0            
    666000   1.001686       0.0040861788   0.99055619     0            
    667000   0.97915916     0.0042548293   0.96828218     2.5633079e-06
    668000   0.98725965     0.0040395119   0.97518159    -0.0011085084 
    669000   1.108526       0.0045877543   1.0962091      0            
    670000   1.0558955      0.0039617197   1.0405847     -0.0035786939 
    671000   0.98622022     0.0038247189   0.97285334    -0.0024088726 
    672000   0.94663872     0.00406962     0.93612052     0            
    673000   0.93135991     0.0035703497   0.92101147     0            
    674000   1.0165063      0.0037348708   1.0052118      0            
    675000   1.0581476      0.0044877269   1.0463904      0            
    676000   1.0287717      0.0048506171   1.0174149      7.4033101e-05
    677000   0.93556955     0.0032069836   0.92357786    -0.0015964723 
    678000   1.0099316      0.0034799923   0.99871016     0            
    679000   0.97801512     0.0051750104   0.96481775    -0.0023305338 
    680000   0.98740897     0.0037994351   0.97643776     0            
    681000   0.99528902     0.0043448887   0.98423025     0            
    682000   0.93848188     0.0041209639   0.92812736     7.3055216e-05
    683000   1.0263826      0.0038252339   1.0149783      0            
    684000   0.9237165      0.0034616024   0.91345298     0            
    685000   1.043745       0.0040243637   1.0321478      0            
    686000   1.0666769      0.0045517642   1.0548249      0            
    687000   1.0129064      0.0043702463   1.0016519      0            
    688000   1.0140124      0.0040404815   1.0014841     -0.0012614466 
    689000   1.0567185      0.003908498    1.0449772      0            
    690000   1.039469       0.0043025211   1.0279193      0            
    691000   0.95905825     0.0032579179   0.94840205     0            
    692000   0.94373321     0.0035719729   0.93468766     0.0014403719 
    693000   0.89565597     0.004245703    0.88575003     4.5798782e-05
    694000   0.98915461     0.0036877651   0.97639171    -0.0017722856 
    695000   0.97717615     0.0043274739   0.96919002     0.0028713763 
    696000   1.0494504      0.0045038635   1.0377898      0            
    697000   1.0010086      0.0041769622   0.99226734     0.0023810436 
    698000   0.96474608     0.0036308653   0.95402668     0            
    699000   1.0827744      0.0044059953   1.0707435      0            
    700000   1.0038401      0.0044543606   0.99268635     0            
    701000   1.015351       0.0041513569   1.0009606     -0.0031086962 
    702000   1.0035139      0.0042185735   0.99169108    -0.000672669  
    703000   1.0260963      0.0047253215   1.0146953      0            
    704000   1.0049411      0.0040751173   0.99377509     0            
    705000   0.98999573     0.0045998458   0.97899578     0            
    706000   1.0073483      0.0046162661   0.99615557     0            
    707000   1.0751428      0.003911233    1.0631967      0            
    708000   0.99750319     0.0048344152   0.98641982     0            
    709000   1.0627237      0.0045713005   1.0489982     -0.0019174547 
    710000   1.0052644      0.0048297076   0.99368738    -0.00040739229
    711000   0.96263382     0.0039985331   0.95044917    -0.0014887129 
    712000   0.96047041     0.0045008877   0.94737427    -0.002424254  
    713000   1.0350626      0.0044025972   1.0230486     -0.00051336493
    714000   1.0011128      0.0048690521   0.98998928     0            
    715000   1.0047958      0.0036904677   0.9936314      0            
    716000   0.99484906     0.0052205386   0.98379518     0            
    717000   0.92134057     0.0035388999   0.91110345     0            
    718000   0.9497652      0.004670989    0.93921225     0            
    719000   0.95604337     0.0048435839   0.94542066     0            
    720000   1.0567154      0.0037626614   1.0449741      0            
    721000   1.1064933      0.0043650595   1.0941989      0            
    722000   0.91485477     0.0041365635   0.90468971     0            
    723000   1.0211246      0.0045169059   1.009895       0.00011624747
    724000   0.94307806     0.0047714604   0.93259942     0            
    725000   0.98051524     0.0035392958   0.96962063     0            
    726000   1.0032713      0.0042877468   0.99212388     0            
    727000   1.003418       0.0036433306   0.99226896     0            
    728000   1.0083017      0.0040667931   0.99522581    -0.0018725035 
    729000   1.0365659      0.0046702356   1.0215731     -0.003475339  
    730000   1.0451664      0.0041804494   1.031098      -0.0024553823 
    731000   1.0130112      0.0045864834   1.0002071     -0.0015484571 
    732000   0.90818053     0.0030009572   0.89580146    -0.00228818   
    733000   1.0177919      0.0037347238   1.0108653      0.0043822064 
    734000   0.95598811     0.0032528705   0.9439838     -0.0013822173 
    735000   1.0031916      0.003570788    0.99160871    -0.0004363192 
    736000   1.0916782      0.0045876003   1.0795484      0            
    737000   1.0178614      0.0046394038   1.0042987     -0.0022531405 
    738000   0.92907389     0.0038214857   0.91701463    -0.0017362235 
    739000   1.0695641      0.0043925888   1.0570724     -0.00060765854
    740000   0.97725603     0.0049807912   0.96639763     0            
    741000   0.98594802     0.0038574732   0.97258851    -0.0024045307 
    742000   0.96772885     0.0033263366   0.95697631     0            
    743000   1.0109544      0.0042802027   0.99972154     0            
    744000   0.9156786      0.0038527037   0.90574819     0.00024379845
    745000   0.96375889     0.0042711872   0.95307273     2.2270644e-05
    746000   1.0417576      0.0042188114   1.0281017     -0.0020808898 
    747000   0.93340018     0.0040745374   0.92302907     0            
    748000   0.86042088     0.0033269143   0.84812009    -0.0027405626 
    749000   1.0276825      0.0032874577   1.0136731     -0.002590696  
    750000   1.0178338      0.003188081    1.0042999     -0.0022246852 
    751000   0.99393426     0.0041427831   0.9793523     -0.0035382464 
    752000   1.0473494      0.0042950547   1.0320132     -0.0036990455 
    753000   1.0610839      0.0039380724   1.0457611     -0.0035329837 
    754000   0.96714468     0.003736511    0.95227235    -0.0041262843 
    755000   0.95237335     0.0040812131   0.93934738    -0.002444043  
    756000   0.97940095     0.0037203756   0.96702275    -0.0014959733 
    757000   1.0668601      0.0043232291   1.0542813     -0.00072482611
    758000   0.95387582     0.003728287    0.94302824    -0.00024895563
    759000   0.99804024     0.0047628219   0.98589347    -0.0010574288 
    760000   1.0218177      0.005421412    1.0103489     -0.00011533819
    761000   1.0259892      0.0046521107   1.0145893      0            
    762000   0.97769664     0.0043724554   0.96682928    -4.0652058e-06
    763000   1.0627154      0.0044746744   1.052478       0.001570637  
    764000   0.94397996     0.003783451    0.93349129     0            
    765000   0.96920974     0.0044898716   0.95471943    -0.0037213052 
    766000   1.0362481      0.004229072    1.0199551     -0.0047791305 
    767000   0.94356789     0.003084686    0.93071335    -0.0023704476 
    768000   1.0531251      0.0039775859   1.0396622     -0.0017614897 
    769000   1.0283003      0.0047981511   1.0158565     -0.0010181649 
    770000   0.90183812     0.0044182555   0.8918177      0            
    771000   1.0150318      0.0042808678   1.0024985     -0.0012550987 
    772000   0.99052631     0.0031865225   0.97952046     0            
    773000   1.0626153      0.0048375522   1.0508085      0            
    774000   1.0360969      0.0033983792   1.0213626     -0.0032221461 
    775000   1.1500176      0.0044804947   1.1374431      0.00020344166
    776000   0.95321817     0.0026104594   0.94259659    -3.0263527e-05
    777000   0.96805888     0.0041996037   0.9565448     -0.00075786984
    778000   1.0081885      0.0044287251   0.99705332     6.6911436e-05
    779000   0.98718995     0.0045507108   0.97622117     0            
    780000   1.0019609      0.0048173922   0.990828       0            
    781000   0.96442144     0.0035933316   0.95370565     0            
    782000   1.0730355      0.0046092653   1.0605707     -0.00054218198
    783000   0.90923864     0.0034835865   0.89913599     0            
    784000   0.95473549     0.0040192345   0.94412457    -2.7490257e-06
    785000   0.98483729     0.0037564545   0.97389465     0            
    786000   0.99246101     0.0036625609   0.98140432    -2.9351504e-05
    787000   0.98649957     0.0040490529   0.97344241    -0.0020960587 
    788000   1.0468788      0.0051445587   1.035688       0.00044116844
    789000   1.0400898      0.0038934484   1.0286028      6.9513718e-05
    790000   1.1595271      0.0042648804   1.1477382      0.0010946927 
    791000   1.0399287      0.0032084808   1.0259067     -0.002467247  
    792000   1.0476375      0.0044519789   1.0359971      0            
    793000   0.97824827     0.0046470804   0.96496741    -0.0024114379 
    794000   0.9673206      0.0040769204   0.95657259     0            
    795000   0.97022344     0.0038540145   0.95944318     0            
    796000   1.0619105      0.0043356178   1.0501115      0            
    797000   0.97233745     0.0033186378   0.9615337      0            
    798000   1.0646038      0.0039245131   1.0527748      0            
    799000   1.0079821      0.0041252243   0.99678232     0            
    800000   1.0004213      0.0042704181   0.98983052     0.00052504028
    801000   0.99415408     0.0033528507   0.98153226    -0.0015756632 
    802000   1.0449642      0.0038623068   1.0333511     -2.3832441e-06
    803000   0.92658364     0.0036036628   0.91396438    -0.0023238927 
    804000   0.99196522     0.0044674776   0.98094338     0            
    805000   1.1076359      0.0045741733   1.0925683     -0.0027605304 
    806000   1.0177234      0.0044972677   1.0048293     -0.0015861409 
    807000   1.048988       0.0045690576   1.0357593     -0.0015733225 
    808000   1.0792218      0.0045305604   1.0670406     -0.00018988347
    809000   1.0918201      0.0052811895   1.0794506     -0.00023817962
    810000   1.0080534      0.004859995    0.99685284     0            
    811000   0.95862        0.0042177928   0.94796867     0            
    812000   0.9793276      0.0037479474   0.96844619     0            
    813000   1.0463322      0.0042219279   1.0339055     -0.00080082692
    814000   0.96389316     0.0040972997   0.95318323     0            
    815000   1.0605278      0.0045437736   1.0487441      0            
    816000   1.0878595      0.0044186191   1.075435      -0.00033713308
    817000   0.88068175     0.0039985828   0.86861373    -0.0022826734 
    818000   0.93673215     0.0034240376   0.92632401     0            
    819000   1.0370074      0.0042680512   1.0278936      0.0024085466 
    820000   1.0416183      0.0039790233   1.0300448      0            
    821000   0.96362055     0.0044720615   0.95088695    -0.0020267073 
    822000   0.99832905     0.0041897181   0.98723651     0            
    823000   1.0503973      0.0036510551   1.0362747     -0.0024515169 
    824000   0.9016403      0.0033148768   0.89025731    -0.0013647712 
    825000   1.0566979      0.0043412499   1.0449568      0            
    826000   1.0339396      0.0038265089   1.0228754      0.00042399918
    827000   0.90916179     0.004350358    0.89905999     0            
    828000   1.0106652      0.0044301296   0.99943563     0            
    829000   1.0258507      0.0032421938   1.0144523      0            
    830000   0.96625885     0.0044349111   0.95552264     0            
    831000   0.91969149     0.0040206897   0.9094727      0            
    832000   0.95240079     0.0028609279   0.94181855     0            
    833000   1.0200861      0.0047615688   1.0100794      0.0013275207 
    834000   1.055611       0.004051025    1.043882       0            
    835000   0.94562022     0.004653364    0.93511333     0            
    836000   0.99246479     0.0053528211   0.9814374      0            
    837000   1.0214446      0.004251849    1.0100953      0            
    838000   1.012405       0.0044212684   1.001156       0            
    839000   1.0429129      0.0035670259   1.031325       0            
    840000   1.015269       0.0043536959   1.0039883      0            
    841000   0.98565444     0.0041270199   0.97470272     0            
    842000   1.0350525      0.004159569    1.023552       0            
    843000   1.0739266      0.0052523323   1.0616794     -0.00031473335
    844000   0.98112514     0.0041722506   0.96780858    -0.0024151701 
    845000   0.94319699     0.003912369    0.93306912     0.00035209847
    846000   1.0226572      0.0041407694   1.0112943      0            
    847000   0.95714065     0.0042880041   0.94506391    -0.0014418491 
    848000   0.99888833     0.0047043266   0.98533002    -0.0024595474 
    849000   0.99640994     0.0040890022   0.98454053    -0.00079818784
    850000   1.024894       0.0053175184   1.0066337     -0.0068725867 
    851000   0.96115755     0.003581007    0.94908524    -0.0013927816 
    852000   0.94058812     0.0037177105   0.93013714     0            
    853000   0.96190153     0.0037973048   0.9496276     -0.0015861315 
    854000   0.98672554     0.0052418329   0.97461268    -0.0011492409 
    855000   0.86156091     0.0043978164   0.85211708     0.0001290661 
    856000   1.0312007      0.0031457774   1.018501      -0.0012419676 
    857000   1.0120432      0.0034770201   1.0007982      0            
    858000   1.0060079      0.0044520777   0.99483003     0            
    859000   1.0284598      0.0043430953   1.0170345      2.0295201e-06
    860000   0.98207092     0.0033661457   0.97115902     0            
    861000   0.99018235     0.0051466661   0.97918033     0            
    862000   1.0096448      0.0039779816   0.99927887     0.00085235115
    863000   1.1266798      0.0043935346   1.1141611      0            
    864000   0.99740031     0.0043665228   0.98631809     0            
    865000   1.0255218      0.0033141647   1.0141272      0            
    866000   1.0260323      0.0038594446   1.0160743      0.0014423629 
    867000   0.97068435     0.0049896529   0.95989897     0            
    868000   0.99473398     0.0032448798   0.98127463    -0.0024067488 
    869000   0.99962193     0.0043881462   0.9886126      9.7573245e-05
    870000   1.0164555      0.0047251356   1.0051616      0            
    871000   1.0528667      0.0044779176   1.0411682      0            
    872000   0.94210368     0.0044500513   0.93253956     0.00090369785
    873000   1.0452135      0.0037366334   1.0336         0            
    874000   0.99738143     0.0042450027   0.98679175     0.00049233002
    875000   0.9368399      0.0042422587   0.92428815    -0.0021424198 
    876000   0.98757523     0.0039263592   0.97892809     0.0023259198 
    877000   1.0609784      0.0052757491   1.0521552      0.0029654303 
    878000   1.0097874      0.003072444    0.99856758     0            
    879000   0.99598308     0.0039305824   0.9849166      0            
    880000   0.96737874     0.0038471255   0.95663008     0            
    881000   0.94827232     0.0041699219   0.93773596     0            
    882000   0.99524089     0.0034815114   0.98418266     0            
    883000   1.0089096      0.0032428175   0.99526953    -0.0024300019 
    884000   1.0330382      0.0047057399   1.0217487      0.0001886748 
    885000   1.0540414      0.004458923    1.0423298      0            
    886000   0.97944946     0.0040173898   0.96822458    -0.00034211251
    887000   1.0803079      0.0043283189   1.0660459     -0.0022585833 
    888000   0.97144616     0.0043830554   0.95607021    -0.0045821005 
    889000   1.093929       0.0035829728   1.0801199     -0.0016543355 
    890000   0.92392866     0.0038073689   0.91404779     0.00038500169
    891000   0.95160391     0.002220132    0.94102711    -3.4255437e-06
    892000   1.03829        0.0038020048   1.0268176      6.4127284e-05
    893000   0.97322032     0.0038063445   0.96240677     0            
    894000   0.98273407     0.0043629313   0.97177459    -4.0213142e-05
    895000   0.87981411     0.0036608174   0.8700384      0            
    896000   1.0718662      0.0041897145   1.0587213     -0.0012353124 
    897000   0.99890275     0.0036554994   0.98787166     6.7835591e-05
    898000   1.0202407      0.0042581202   1.0089047      0            
    899000   0.85061238     0.0034608332   0.84062145    -0.00053967839
    900000   1.018435       0.0036312391   1.0071191      0            
    901000   0.99570615     0.0044094535   0.98449937    -0.00014338086
    902000   0.9317177      0.0037227047   0.92136528     0            
    903000   1.0055034      0.0034421591   0.99433115     0            
    904000   1.0090917      0.0046314258   0.99787956     0            
    905000   0.91098732     0.0046590183   0.90086524     0            
    906000   1.0101571      0.003228394    0.99893313     0            
    907000   1.0176248      0.0044093774   1.0063179      0            
    908000   1.0503479      0.0036549752   1.0365284     -0.0021489602 
    909000   0.9778452      0.0039133415   0.96496149    -0.00201876   
    910000   1.0224553      0.0035845498   1.0101593     -0.00093543326
    911000   1.0754497      0.0037419248   1.0635003      0            
    912000   1.1202569      0.004613799    1.1070043     -0.00080536867
    913000   1.0343951      0.0041802504   1.0229018      0            
    914000   1.0677153      0.0047330894   1.0558518      0            
    915000   1.0175214      0.0050619526   1.0062156      0            
    916000   1.0360352      0.003299637    1.024789       0.00026530116
    917000   1.0206974      0.0050623056   1.0093563      0            
    918000   0.90297304     0.0043092563   0.89294001     0            
    919000   0.96399959     0.0036267447   0.95328848     0            
    920000   0.99438049     0.0035726677   0.98333182     0            
    921000   1.009128       0.0046261149   0.99791542     0            
    922000   0.96240021     0.0043769699   0.95195129     0.00024441921
    923000   0.96714357     0.0040710476   0.95639753     0            
    924000   0.96234004     0.0041879884   0.9501201     -0.0015272783 
    925000   0.94546989     0.0035165527   0.93496467     0            
    926000   0.95398344     0.0035050209   0.94338421     5.822567e-07 
    927000   0.98746306     0.0042640824   0.97407891    -0.0024123376 
    928000   0.99598073     0.0041615647   0.97999758    -0.0049166975 
    929000   1.0689728      0.0043598886   1.0561277     -0.00096762013
    930000   0.97677136     0.0039473996   0.96591982     1.4708041e-06
    931000   0.97692178     0.0037769348   0.96361153    -0.0024555579 
    932000   1.1172949      0.0051063503   1.1020002     -0.0028803312 
    933000   1.0586848      0.0039057228   1.0486268      0.0017052121 
    934000   1.0124438      0.0040324856   1.0011882     -6.2660372e-06
    935000   0.98873454     0.0041689076   0.97697966    -0.00076894412
    936000   1.0673827      0.0036101651   1.0513879     -0.0041350395 
    937000   1.0590743      0.004498662    1.04484       -0.0024667561 
    938000   1.0423655      0.0037253266   1.0265948     -0.0041888292 
    939000   1.0362168      0.0036284199   1.0203759     -0.0043273287 
    940000   0.96656575     0.0040551647   0.95582613     0            
    941000   0.98602522     0.002922577    0.97506939     0            
    942000   1.0598397      0.0049351213   1.048092       2.8310526e-05
    943000   0.86793332     0.0043872271   0.85392097    -0.004368648  
    944000   1.0094987      0.0044099356   0.9949551     -0.0033269508 
    945000   1.0212048      0.0035573295   1.0089375     -0.00092055358
    946000   1.1156983      0.0039049733   1.1036007      0.00029902862
    947000   0.97310875     0.0042936638   0.96025049    -0.0020459356 
    948000   1.045407       0.0038132483   1.0337913      0            
    949000   1.0482928      0.0046819885   1.0356832     -0.00096191527
    950000   1.0644515      0.0045703816   1.0509083     -0.0017158907 
    951000   0.96067613     0.0037480923   0.95000369     1.7446754e-06
    952000   1.0566816      0.0052103067   1.0437607     -0.001179994  
    953000   1.0148693      0.0033764485   1.0026773     -0.0009156882 
    954000   1.0430408      0.0036703076   1.0314515      0            
    955000   1.0319414      0.0046462572   1.0204754      0            
    956000   0.96345649     0.0035474915   0.95275142     0            
    957000   0.96930932     0.0039092611   0.95853921     0            
    958000   0.9658679      0.0039163925   0.95513603     0            
    959000   1.0206401      0.0040569565   1.0092996      0            
    960000   1.0119104      0.0050083527   1.000667       0            
    961000   1.0310076      0.005600299    1.022605       0.0030529874 
    962000   1.0043315      0.0042471533   0.99076594    -0.0024063325 
    963000   1.0065157      0.0046972625   1.0010984      0.0057662594 
    964000   1.0135557      0.0049695467   1.0022939      0            
    965000   1.0330619      0.0039551038   1.019579      -0.0020044119 
    966000   1.0535806      0.0031907055   1.0418742      0            
    967000   1.0191262      0.0043115072   1.0089299      0.0011273259 
    968000   0.97642922     0.003726131    0.96433308    -0.0012469206 
    969000   1.039111       0.0037925816   1.0275653      0            
    970000   1.142527       0.0058609834   1.1276178     -0.0022145506 
    971000   1.0353106      0.0036093592   1.0221858     -0.0016212545 
    972000   0.9655105      0.0044815271   0.9547826      0            
    973000   1.0949167      0.0043207051   1.082751       0            
    974000   1.0226153      0.0052504927   1.0112529      0            
    975000   0.98531932     0.0037216763   0.97437133     0            
    976000   1.0575554      0.0039886056   1.0434753     -0.002329414  
    977000   0.97619884     0.0041182928   0.96556289     0.00021070714
    978000   0.97520636     0.004065942    0.96437074     0            
    979000   0.9513511      0.0035163363   0.94078053     0            
    980000   0.96663907     0.0048749603   0.95588991    -8.7265231e-06
    981000   0.88775677     0.0029958174   0.87584158    -0.0020512319 
    982000   1.0819995      0.0048027336   1.0699773      0            
    983000   1.0073238      0.0039096784   0.99378022    -0.0023510462 
    984000   0.99238815     0.0045621787   0.98136161     0            
    985000   1.0550516      0.0039463511   1.0418356     -0.0014932403 
    986000   1.0584161      0.0038567299   1.045791      -0.00086494138
    987000   1.011386       0.0038766377   0.99947168    -0.00067668211
    988000   0.97315439     0.0041852193   0.96193988    -0.00040168578
    989000   1.0059755      0.003549919    0.99374704    -0.0010509542 
    990000   1.0221796      0.0044445066   1.0093643     -0.0014576904 
    991000   0.88879598     0.0034623808   0.87512173    -0.0037987357 
    992000   0.96852846     0.0031207151   0.956605      -0.0011620307 
    993000   1.0454335      0.0032675324   1.0318837     -0.0019338453 
    994000   1.0033472      0.0041899688   0.99073293    -0.0014659231 
    995000   1.0524002      0.0051302986   1.0403794     -0.00032745311
    996000   1.0197192      0.0034042678   1.008389       0            
    997000   1.0066963      0.0042230429   0.99481888    -0.0006918756 
    998000   1.0462446      0.0043815059   1.0346196      0            
    999000   1.0307778      0.0048766697   1.0193247      0            
   1000000   1.0065475      0.0042918854   0.99500592    -0.00035769401
Loop time of 17.8239 on 1 procs for 1000000 steps with 405 atoms

Performance: 48474175.508 tau/day, 56104.370 timesteps/s
98.8% CPU use with 1 MPI tasks x no OpenMP threads

MPI task timing breakdown:
Section |  min time  |  avg time  |  max time  |%varavg| %total
---------------------------------------------------------------
Pair    | 0.83499    | 0.83499    | 0.83499    |   0.0 |  4.68
Bond    | 0.044411   | 0.044411   | 0.044411   |   0.0 |  0.25
Neigh   | 3.412      | 3.412      | 3.412      |   0.0 | 19.14
Comm    | 0.90624    | 0.90624    | 0.90624    |   0.0 |  5.08
Output  | 0.3533     | 0.3533     | 0.3533     |   0.0 |  1.98
Modify  | 10.874     | 10.874     | 10.874     |   0.0 | 61.01
Other   |            | 1.399      |            |       |  7.85

Nlocal:            405 ave         405 max         405 min
Histogram: 1 0 0 0 0 0 0 0 0 0
Nghost:             58 ave          58 max          58 min
Histogram: 1 0 0 0 0 0 0 0 0 0
Neighs:              3 ave           3 max           3 min
Histogram: 1 0 0 0 0 0 0 0 0 0

Total # of neighbors = 3
Ave neighs/atom = 0.0074074074
Ave special neighs/atom = 0
Neighbor list builds = 212401
Dangerous builds = 0
Total wall time: 0:00:17
