ITEM: TIMESTEP
0
ITEM: NUMBER OF ATOMS
600
ITEM: BOX BOUNDS pp pp pp
-1.5625000000000000e+02 1.5625000000000000e+02
-1.5625000000000000e+02 1.5625000000000000e+02
-5.0000000000000003e-02 5.0000000000000003e-02
ITEM: ATOMS id type mol x y z
511 2 511 -156.25 -156.25 0
191 1 191 -143.75 -156.25 0
285 1 285 -131.25 -156.25 0
551 2 551 -118.75 -156.25 0
358 2 358 -106.25 -156.25 0
404 2 404 -93.75 -156.25 0
473 2 473 -81.25 -156.25 0
600 2 600 -68.75 -156.25 0
180 1 180 -56.25 -156.25 0
100 1 100 -43.75 -156.25 0
161 1 161 -31.25 -156.25 0
57 1 57 -18.75 -156.25 0
92 1 92 -6.25 -156.25 0
83 1 83 6.25 -156.25 0
432 2 432 18.75 -156.25 0
67 1 67 31.25 -156.25 0
394 2 394 43.75 -156.25 0
110 1 110 56.25 -156.25 0
276 1 276 68.75 -156.25 0
568 2 568 81.25 -156.25 0
274 1 274 93.75 -156.25 0
95 1 95 106.25 -156.25 0
143 1 143 118.75 -156.25 0
247 1 247 131.25 -156.25 0
97 1 97 143.75 -156.25 0
419 2 419 -156.25 -143.75 0
426 2 426 -143.75 -143.75 0
234 1 234 -131.25 -143.75 0
594 2 594 -118.75 -143.75 0
8 1 8 -106.25 -143.75 0
596 2 596 -93.75 -143.75 0
154 1 154 -81.25 -143.75 0
157 1 157 -68.75 -143.75 0
114 1 114 -56.25 -143.75 0
456 2 456 -43.75 -143.75 0
32 1 32 -31.25 -143.75 0
370 2 370 -18.75 -143.75 0
186 1 186 -6.25 -143.75 0
355 2 355 6.25 -143.75 0
270 1 270 18.75 -143.75 0
181 1 181 31.25 -143.75 0
166 1 166 43.75 -143.75 0
65 1 65 56.25 -143.75 0
277 1 277 68.75 -143.75 0
520 2 520 81.25 -143.75 0
516 2 516 93.75 -143.75 0
188 1 188 106.25 -143.75 0
556 2 556 118.75 -143.75 0
230 1 230 131.25 -143.75 0
539 2 539 143.75 -143.75 0
81 1 81 -156.25 -131.25 0
380 2 380 -143.75 -131.25 0
423 2 423 -131.25 -131.25 0
518 2 518 -118.75 -131.25 0
27 1 27 -106.25 -131.25 0
400 2 400 -93.75 -131.25 0
366 2 366 -81.25 -131.25 0
476 2 476 -68.75 -131.25 0
517 2 517 -43.75 -131.25 0
446 2 446 -31.25 -131.25 0
86 1 86 -18.75 -131.25 0
521 2 521 -6.25 -131.25 0
505 2 505 6.25 -131.25 0
445 2 445 18.75 -131.25 0
500 2 500 31.25 -131.25 0
62 1 62 43.75 -131.25 0
216 1 216 56.25 -131.25 0
39 1 39 68.75 -131.25 0
118 1 118 81.25 -131.25 0
376 2 376 93.75 -131.25 0
120 1 120 106.25 -131.25 0
49 1 49 118.75 -131.25 0
111 1 111 131.25 -131.25 0
283 1 283 143.75 -131.25 0
255 1 255 -156.25 -118.75 0
269 1 269 -143.75 -118.75 0
82 1 82 -131.25 -118.75 0
96 1 96 -118.75 -118.75 0
340 2 340 -106.25 -118.75 0
222 1 222 -93.75 -118.75 0
584 2 584 -81.25 -118.75 0
169 1 169 -68.75 -118.75 0
514 2 514 -56.25 -118.75 0
80 1 80 -43.75 -118.75 0
492 2 492 -31.25 -118.75 0
117 1 117 -6.25 -118.75 0
360 2 360 6.25 -118.75 0
61 1 61 18.75 -118.75 0
338 2 338 31.25 -118.75 0
349 2 349 43.75 -118.75 0
64 1 64 56.25 -118.75 0
268 1 268 68.75 -118.75 0
585 2 585 81.25 -118.75 0
326 2 326 93.75 -118.75 0
44 1 44 106.25 -118.75 0
165 1 165 118.75 -118.75 0
434 2 434 131.25 -118.75 0
133 1 133 -156.25 -106.25 0
495 2 495 -143.75 -106.25 0
124 1 124 -131.25 -106.25 0
430 2 430 -118.75 -106.25 0
130 1 130 -106.25 -106.25 0
137 1 137 -93.75 -106.25 0
94 1 94 -81.25 -106.25 0
580 2 580 -68.75 -106.25 0
558 2 558 -56.25 -106.25 0
374 2 374 -43.75 -106.25 0
413 2 413 -31.25 -106.25 0
447 2 447 -18.75 -106.25 0
179 1 179 -6.25 -106.25 0
528 2 528 6.25 -106.25 0
416 2 416 18.75 -106.25 0
273 1 273 43.75 -106.25 0
249 1 249 56.25 -106.25 0
524 2 524 68.75 -106.25 0
156 1 156 81.25 -106.25 0
532 2 532 93.75 -106.25 0
335 2 335 106.25 -106.25 0
127 1 127 118.75 -106.25 0
123 1 123 143.75 -106.25 0
45 1 45 -156.25 -93.75 0
160 1 160 -143.75 -93.75 0
18 1 18 -131.25 -93.75 0
87 1 87 -118.75 -93.75 0
420 2 420 -106.25 -93.75 0
220 1 220 -93.75 -93.75 0
287 1 287 -81.25 -93.75 0
248 1 248 -56.25 -93.75 0
35 1 35 -43.75 -93.75 0
557 2 557 -31.25 -93.75 0
461 2 461 -18.75 -93.75 0
546 2 546 -6.25 -93.75 0
193 1 193 6.25 -93.75 0
412 2 412 18.75 -93.75 0
122 1 122 31.25 -93.75 0
29 1 29 43.75 -93.75 0
379 2 379 56.25 -93.75 0
576 2 576 68.75 -93.75 0
241 1 241 81.25 -93.75 0
375 2 375 93.75 -93.75 0
284 1 284 106.25 -93.75 0
199 1 199 118.75 -93.75 0
15 1 15 131.25 -93.75 0
599 2 599 143.75 -93.75 0
431 2 431 -156.25 -81.25 0
2 1 2 -143.75 -81.25 0
107 1 107 -131.25 -81.25 0
485 2 485 -118.75 -81.25 0
214 1 214 -106.25 -81.25 0
280 1 280 -93.75 -81.25 0
250 1 250 -81.25 -81.25 0
406 2 406 -56.25 -81.25 0
475 2 475 -43.75 -81.25 0
147 1 147 -31.25 -81.25 0
303 2 303 -18.75 -81.25 0
99 1 99 -6.25 -81.25 0
550 2 550 6.25 -81.25 0
215 1 215 18.75 -81.25 0
563 2 563 31.25 -81.25 0
578 2 578 43.75 -81.25 0
33 1 33 56.25 -81.25 0
409 2 409 68.75 -81.25 0
30 1 30 81.25 -81.25 0
398 2 398 93.75 -81.25 0
519 2 519 106.25 -81.25 0
168 1 168 118.75 -81.25 0
549 2 549 131.25 -81.25 0
167 1 167 143.75 -81.25 0
321 2 321 -156.25 -68.75 0
290 1 290 -131.25 -68.75 0
89 1 89 -118.75 -68.75 0
309 2 309 -106.25 -68.75 0
458 2 458 -93.75 -68.75 0
91 1 91 -81.25 -68.75 0
482 2 482 -68.75 -68.75 0
68 1 68 -56.25 -68.75 0
503 2 503 -43.75 -68.75 0
293 1 293 -31.25 -68.75 0
407 2 407 -18.75 -68.75 0
389 2 389 -6.25 -68.75 0
342 2 342 6.25 -68.75 0
282 1 282 18.75 -68.75 0
108 1 108 31.25 -68.75 0
69 1 69 43.75 -68.75 0
510 2 510 56.25 -68.75 0
25 1 25 68.75 -68.75 0
362 2 362 81.25 -68.75 0
236 1 236 93.75 -68.75 0
347 2 347 106.25 -68.75 0
372 2 372 118.75 -68.75 0
538 2 538 143.75 -68.75 0
317 2 317 -156.25 -56.25 0
512 2 512 -143.75 -56.25 0
391 2 391 -131.25 -56.25 0
153 1 153 -118.75 -56.25 0
197 1 197 -106.25 -56.25 0
155 1 155 -81.25 -56.25 0
271 1 271 -68.75 -56.25 0
501 2 501 -43.75 -56.25 0
555 2 555 -31.25 -56.25 0
22 1 22 -18.75 -56.25 0
213 1 213 -6.25 -56.25 0
138 1 138 6.25 -56.25 0
393 2 393 18.75 -56.25 0
42 1 42 31.25 -56.25 0
173 1 173 43.75 -56.25 0
452 2 452 56.25 -56.25 0
356 2 356 68.75 -56.25 0
541 2 541 81.25 -56.25 0
295 1 295 93.75 -56.25 0
494 2 494 106.25 -56.25 0
278 1 278 118.75 -56.25 0
327 2 327 131.25 -56.25 0
78 1 78 143.75 -56.25 0
106 1 106 -156.25 -43.75 0
460 2 460 -143.75 -43.75 0
547 2 547 -118.75 -43.75 0
418 2 418 -106.25 -43.75 0
182 1 182 -93.75 -43.75 0
498 2 498 -81.25 -43.75 0
378 2 378 -68.75 -43.75 0
457 2 457 -56.25 -43.75 0
469 2 469 -43.75 -43.75 0
79 1 79 -31.25 -43.75 0
344 2 344 -18.75 -43.75 0
258 1 258 -6.25 -43.75 0
387 2 387 6.25 -43.75 0
466 2 466 18.75 -43.75 0
51 1 51 31.25 -43.75 0
336 2 336 43.75 -43.75 0
4 1 4 56.25 -43.75 0
113 1 113 68.75 -43.75 0
26 1 26 81.25 -43.75 0
1 1 1 93.75 -43.75 0
187 1 187 106.25 -43.75 0
433 2 433 118.75 -43.75 0
52 1 52 131.25 -43.75 0
175 1 175 143.75 -43.75 0
566 2 566 -156.25 -31.25 0
408 2 408 -143.75 -31.25 0
371 2 371 -131.25 -31.25 0
581 2 581 -118.75 -31.25 0
71 1 71 -106.25 -31.25 0
149 1 149 -93.75 -31.25 0
211 1 211 -81.25 -31.25 0
259 1 259 -68.75 -31.25 0
48 1 48 -56.25 -31.25 0
439 2 439 -43.75 -31.25 0
341 2 341 -31.25 -31.25 0
209 1 209 -18.75 -31.25 0
331 2 331 -6.25 -31.25 0
499 2 499 6.25 -31.25 0
159 1 159 18.75 -31.25 0
536 2 536 31.25 -31.25 0
59 1 59 43.75 -31.25 0
235 1 235 56.25 -31.25 0
548 2 548 68.75 -31.25 0
88 1 88 81.25 -31.25 0
208 1 208 93.75 -31.25 0
509 2 509 106.25 -31.25 0
357 2 357 118.75 -31.25 0
382 2 382 131.25 -31.25 0
41 1 41 143.75 -31.25 0
198 1 198 -156.25 -18.75 0
263 1 263 -143.75 -18.75 0
304 2 304 -131.25 -18.75 0
574 2 574 -118.75 -18.75 0
240 1 240 -106.25 -18.75 0
422 2 422 -93.75 -18.75 0
595 2 595 -81.25 -18.75 0
98 1 98 -56.25 -18.75 0
14 1 14 -43.75 -18.75 0
16 1 16 -31.25 -18.75 0
178 1 178 -18.75 -18.75 0
564 2 564 -6.25 -18.75 0
243 1 243 6.25 -18.75 0
6 1 6 18.75 -18.75 0
252 1 252 31.25 -18.75 0
196 1 196 43.75 -18.75 0
260 1 260 56.25 -18.75 0
101 1 101 68.75 -18.75 0
479 2 479 81.25 -18.75 0
465 2 465 93.75 -18.75 0
150 1 150 106.25 -18.75 0
13 1 13 118.75 -18.75 0
219 1 219 131.25 -18.75 0
345 2 345 143.75 -18.75 0
60 1 60 -156.25 -6.25 0
121 1 121 -143.75 -6.25 0
437 2 437 -131.25 -6.25 0
330 2 330 -118.75 -6.25 0
109 1 109 -106.25 -6.25 0
9 1 9 -93.75 -6.25 0
513 2 513 -81.25 -6.25 0
139 1 139 -68.75 -6.25 0
544 2 544 -56.25 -6.25 0
162 1 162 -43.75 -6.25 0
194 1 194 -31.25 -6.25 0
533 2 533 -18.75 -6.25 0
339 2 339 -6.25 -6.25 0
314 2 314 6.25 -6.25 0
383 2 383 18.75 -6.25 0
217 1 217 31.25 -6.25 0
504 2 504 43.75 -6.25 0
325 2 325 56.25 -6.25 0
403 2 403 68.75 -6.25 0
184 1 184 81.25 -6.25 0
311 2 311 93.75 -6.25 0
229 1 229 106.25 -6.25 0
292 1 292 118.75 -6.25 0
115 1 115 131.25 -6.25 0
429 2 429 143.75 -6.25 0
559 2 559 -143.75 6.25 0
218 1 218 -131.25 6.25 0
192 1 192 -118.75 6.25 0
467 2 467 -106.25 6.25 0
126 1 126 -93.75 6.25 0
491 2 491 -81.25 6.25 0
203 1 203 -68.75 6.25 0
84 1 84 -56.25 6.25 0
359 2 359 -43.75 6.25 0
478 2 478 -31.25 6.25 0
508 2 508 -18.75 6.25 0
306 2 306 -6.25 6.25 0
388 2 388 6.25 6.25 0
507 2 507 31.25 6.25 0
593 2 593 43.75 6.25 0
502 2 502 56.25 6.25 0
47 1 47 68.75 6.25 0
472 2 472 81.25 6.25 0
322 2 322 93.75 6.25 0
560 2 560 106.25 6.25 0
300 1 300 118.75 6.25 0
267 1 267 131.25 6.25 0
531 2 531 143.75 6.25 0
93 1 93 -156.25 18.75 0
506 2 506 -143.75 18.75 0
480 2 480 -131.25 18.75 0
586 2 586 -118.75 18.75 0
185 1 185 -106.25 18.75 0
105 1 105 -93.75 18.75 0
265 1 265 -81.25 18.75 0
297 1 297 -68.75 18.75 0
428 2 428 -56.25 18.75 0
195 1 195 -43.75 18.75 0
417 2 417 -31.25 18.75 0
12 1 12 -18.75 18.75 0
237 1 237 -6.25 18.75 0
53 1 53 6.25 18.75 0
577 2 577 18.75 18.75 0
275 1 275 31.25 18.75 0
462 2 462 43.75 18.75 0
254 1 254 56.25 18.75 0
102 1 102 68.75 18.75 0
464 2 464 81.25 18.75 0
368 2 368 93.75 18.75 0
583 2 583 106.25 18.75 0
590 2 590 118.75 18.75 0
205 1 205 131.25 18.75 0
190 1 190 143.75 18.75 0
223 1 223 -156.25 31.25 0
251 1 251 -143.75 31.25 0
435 2 435 -131.25 31.25 0
477 2 477 -118.75 31.25 0
427 2 427 -106.25 31.25 0
183 1 183 -93.75 31.25 0
448 2 448 -81.25 31.25 0
172 1 172 -68.75 31.25 0
444 2 444 -43.75 31.25 0
343 2 343 -31.25 31.25 0
459 2 459 -18.75 31.25 0
470 2 470 -6.25 31.25 0
424 2 424 6.25 31.25 0
224 1 224 18.75 31.25 0
212 1 212 31.25 31.25 0
201 1 201 43.75 31.25 0
103 1 103 56.25 31.25 0
128 1 128 68.75 31.25 0
384 2 384 81.25 31.25 0
436 2 436 93.75 31.25 0
204 1 204 106.25 31.25 0
496 2 496 118.75 31.25 0
146 1 146 131.25 31.25 0
569 2 569 143.75 31.25 0
163 1 163 -156.25 43.75 0
361 2 361 -143.75 43.75 0
141 1 141 -131.25 43.75 0
116 1 116 -106.25 43.75 0
17 1 17 -93.75 43.75 0
489 2 489 -81.25 43.75 0
561 2 561 -68.75 43.75 0
134 1 134 -56.25 43.75 0
200 1 200 -43.75 43.75 0
46 1 46 -31.25 43.75 0
542 2 542 -18.75 43.75 0
227 1 227 -6.25 43.75 0
10 1 10 6.25 43.75 0
332 2 332 18.75 43.75 0
545 2 545 43.75 43.75 0
554 2 554 56.25 43.75 0
562 2 562 68.75 43.75 0
353 2 353 81.25 43.75 0
239 1 239 93.75 43.75 0
365 2 365 106.25 43.75 0
312 2 312 118.75 43.75 0
410 2 410 143.75 43.75 0
572 2 572 -156.25 56.25 0
588 2 588 -143.75 56.25 0
125 1 125 -131.25 56.25 0
129 1 129 -118.75 56.25 0
399 2 399 -106.25 56.25 0
142 1 142 -93.75 56.25 0
305 2 305 -81.25 56.25 0
534 2 534 -68.75 56.25 0
390 2 390 -56.25 56.25 0
319 2 319 -43.75 56.25 0
253 1 253 -31.25 56.25 0
176 1 176 -18.75 56.25 0
527 2 527 -6.25 56.25 0
261 1 261 6.25 56.25 0
369 2 369 18.75 56.25 0
579 2 579 31.25 56.25 0
257 1 257 43.75 56.25 0
90 1 90 56.25 56.25 0
294 1 294 68.75 56.25 0
313 2 313 81.25 56.25 0
66 1 66 93.75 56.25 0
136 1 136 106.25 56.25 0
450 2 450 118.75 56.25 0
318 2 318 131.25 56.25 0
537 2 537 143.75 56.25 0
37 1 37 -143.75 68.75 0
414 2 414 -131.25 68.75 0
85 1 85 -118.75 68.75 0
55 1 55 -106.25 68.75 0
177 1 177 -93.75 68.75 0
296 1 296 -81.25 68.75 0
329 2 329 -68.75 68.75 0
573 2 573 -56.25 68.75 0
3 1 3 -43.75 68.75 0
540 2 540 -31.25 68.75 0
438 2 438 -18.75 68.75 0
58 1 58 -6.25 68.75 0
73 1 73 6.25 68.75 0
301 2 301 18.75 68.75 0
381 2 381 31.25 68.75 0
54 1 54 43.75 68.75 0
385 2 385 56.25 68.75 0
231 1 231 68.75 68.75 0
43 1 43 81.25 68.75 0
530 2 530 93.75 68.75 0
135 1 135 106.25 68.75 0
288 1 288 118.75 68.75 0
405 2 405 143.75 68.75 0
20 1 20 -156.25 81.25 0
279 1 279 -143.75 81.25 0
152 1 152 -131.25 81.25 0
441 2 441 -118.75 81.25 0
323 2 323 -106.25 81.25 0
552 2 552 -93.75 81.25 0
40 1 40 -81.25 81.25 0
104 1 104 -68.75 81.25 0
328 2 328 -56.25 81.25 0
440 2 440 -43.75 81.25 0
232 1 232 -31.25 81.25 0
449 2 449 -18.75 81.25 0
570 2 570 -6.25 81.25 0
289 1 289 6.25 81.25 0
70 1 70 18.75 81.25 0
571 2 571 31.25 81.25 0
207 1 207 43.75 81.25 0
454 2 454 56.25 81.25 0
34 1 34 68.75 81.25 0
443 2 443 81.25 81.25 0
50 1 50 93.75 81.25 0
553 2 553 106.25 81.25 0
442 2 442 118.75 81.25 0
351 2 351 131.25 81.25 0
582 2 582 143.75 81.25 0
63 1 63 -156.25 93.75 0
206 1 206 -143.75 93.75 0
75 1 75 -131.25 93.75 0
272 1 272 -118.75 93.75 0
488 2 488 -106.25 93.75 0
246 1 246 -93.75 93.75 0
31 1 31 -81.25 93.75 0
386 2 386 -56.25 93.75 0
367 2 367 -43.75 93.75 0
334 2 334 -31.25 93.75 0
228 1 228 -18.75 93.75 0
56 1 56 -6.25 93.75 0
225 1 225 6.25 93.75 0
567 2 567 18.75 93.75 0
307 2 307 31.25 93.75 0
281 1 281 43.75 93.75 0
493 2 493 68.75 93.75 0
525 2 525 81.25 93.75 0
463 2 463 93.75 93.75 0
170 1 170 106.25 93.75 0
363 2 363 118.75 93.75 0
164 1 164 131.25 93.75 0
575 2 575 143.75 93.75 0
481 2 481 -156.25 106.25 0
471 2 471 -143.75 106.25 0
565 2 565 -131.25 106.25 0
346 2 346 -118.75 106.25 0
529 2 529 -106.25 106.25 0
202 1 202 -93.75 106.25 0
487 2 487 -81.25 106.25 0
298 1 298 -68.75 106.25 0
302 2 302 -56.25 106.25 0
598 2 598 -43.75 106.25 0
597 2 597 -31.25 106.25 0
592 2 592 -18.75 106.25 0
221 1 221 -6.25 106.25 0
119 1 119 6.25 106.25 0
140 1 140 18.75 106.25 0
23 1 23 31.25 106.25 0
411 2 411 43.75 106.25 0
425 2 425 56.25 106.25 0
72 1 72 68.75 106.25 0
226 1 226 81.25 106.25 0
320 2 320 93.75 106.25 0
244 1 244 106.25 106.25 0
526 2 526 118.75 106.25 0
233 1 233 131.25 106.25 0
402 2 402 143.75 106.25 0
238 1 238 -156.25 118.75 0
7 1 7 -143.75 118.75 0
587 2 587 -131.25 118.75 0
490 2 490 -118.75 118.75 0
589 2 589 -106.25 118.75 0
364 2 364 -93.75 118.75 0
392 2 392 -81.25 118.75 0
377 2 377 -56.25 118.75 0
310 2 310 -43.75 118.75 0
373 2 373 -31.25 118.75 0
242 1 242 -18.75 118.75 0
486 2 486 -6.25 118.75 0
352 2 352 6.25 118.75 0
397 2 397 18.75 118.75 0
401 2 401 31.25 118.75 0
535 2 535 43.75 118.75 0
148 1 148 56.25 118.75 0
483 2 483 68.75 118.75 0
131 1 131 81.25 118.75 0
484 2 484 93.75 118.75 0
348 2 348 106.25 118.75 0
112 1 112 118.75 118.75 0
451 2 451 131.25 118.75 0
262 1 262 143.75 118.75 0
497 2 497 -156.25 131.25 0
145 1 145 -143.75 131.25 0
415 2 415 -131.25 131.25 0
453 2 453 -118.75 131.25 0
354 2 354 -106.25 131.25 0
396 2 396 -93.75 131.25 0
144 1 144 -81.25 131.25 0
210 1 210 -68.75 131.25 0
21 1 21 -56.25 131.25 0
11 1 11 -43.75 131.25 0
455 2 455 -31.25 131.25 0
324 2 324 -18.75 131.25 0
337 2 337 -6.25 131.25 0
74 1 74 6.25 131.25 0
591 2 591 18.75 131.25 0
38 1 38 31.25 131.25 0
24 1 24 43.75 131.25 0
308 2 308 56.25 131.25 0
19 1 19 68.75 131.25 0
256 1 256 81.25 131.25 0
5 1 5 93.75 131.25 0
77 1 77 106.25 131.25 0
266 1 266 118.75 131.25 0
522 2 522 131.25 131.25 0
299 1 299 143.75 131.25 0
245 1 245 -156.25 143.75 0
28 1 28 -143.75 143.75 0
421 2 421 -118.75 143.75 0
174 1 174 -106.25 143.75 0
315 2 315 -93.75 143.75 0
171 1 171 -81.25 143.75 0
350 2 350 -68.75 143.75 0
523 2 523 -56.25 143.75 0
76 1 76 -43.75 143.75 0
264 1 264 -31.25 143.75 0
132 1 132 -18.75 143.75 0
474 2 474 -6.25 143.75 0
468 2 468 6.25 143.75 0
151 1 151 18.75 143.75 0
189 1 189 31.25 143.75 0
543 2 543 43.75 143.75 0
395 2 395 56.25 143.75 0
158 1 158 68.75 143.75 0
515 2 515 81.25 143.75 0
333 2 333 93.75 143.75 0
316 2 316 106.25 143.75 0
291 1 291 118.75 143.75 0
286 1 286 131.25 143.75 0
36 1 36 143.75 143.75 0
ITEM: TIMESTEP
1000
ITEM: NUMBER OF ATOMS
600
ITEM: BOX BOUNDS pp pp pp
-1.5625000000000000e+02 1.5625000000000000e+02
-1.5625000000000000e+02 1.5625000000000000e+02
-5.0000000000000003e-02 5.0000000000000003e-02
ITEM: ATOMS id type mol x y z
511 2 511 150.469 154.774 0
191 1 191 -137.649 -154.929 0
285 1 285 -129.208 -148.179 0
551 2 551 -122.68 -150.96 0
358 2 358 -110.389 153.932 0
404 2 404 -91.7311 -153.074 0
473 2 473 -85 -153.787 0
600 2 600 -69.0371 -151.243 0
180 1 180 -55.9065 155.328 0
100 1 100 -44.3461 -150.915 0
161 1 161 -35.3605 -148.542 0
57 1 57 -17.0797 149.842 0
92 1 92 -6.90644 153.05 0
83 1 83 7.77459 154.293 0
432 2 432 16.6265 -149.16 0
67 1 67 31.9935 147.571 0
394 2 394 37.6548 152.682 0
110 1 110 56.0498 155.198 0
276 1 276 73.1479 153.409 0
568 2 568 86.7854 -153.534 0
274 1 274 85.2203 154.701 0
95 1 95 102.395 153.719 0
143 1 143 118.601 156.002 0
247 1 247 135.698 147.596 0
97 1 97 139.571 -154.538 0
419 2 419 153.174 -142.47 0
426 2 426 -141.15 -140.722 0
234 1 234 -132.342 -147.838 0
594 2 594 -119.198 -149.969 0
8 1 8 -104.517 -148.008 0
596 2 596 -93.7725 -138.582 0
154 1 154 -83.3947 -142.364 0
157 1 157 -70.1871 -150.545 0
114 1 114 -56.0836 -142.379 0
456 2 456 -39.5404 -137.027 0
32 1 32 -30.2152 -144.626 0
370 2 370 -18.2684 -139.639 0
186 1 186 -8.60861 -151.097 0
355 2 355 3.83231 -142.962 0
270 1 270 17.0047 -149.252 0
181 1 181 28.4753 -140.444 0
166 1 166 44.6231 -146.218 0
65 1 65 62.4055 -136.488 0
277 1 277 70.2076 -150.351 0
520 2 520 82.8767 -143.81 0
516 2 516 99.6586 -145.053 0
188 1 188 104.151 -145.317 0
556 2 556 123.069 -143.02 0
230 1 230 132.141 -141.158 0
539 2 539 136.646 -148.307 0
81 1 81 -156.162 -127.509 0
380 2 380 -141.326 -124.279 0
423 2 423 -127.151 -130.943 0
518 2 518 -120.478 -132.051 0
27 1 27 -101.353 -130.242 0
400 2 400 -85.087 -135.516 0
366 2 366 -79.9168 -130.357 0
476 2 476 -61.8744 -131.746 0
517 2 517 -48.4335 -132.63 0
446 2 446 -29.1926 -131.73 0
86 1 86 -23.4344 -133.987 0
521 2 521 -6.13459 -131.004 0
505 2 505 11.7216 -124.316 0
445 2 445 19.5053 -129.384 0
500 2 500 31.7887 -128.902 0
62 1 62 41.1894 -129.814 0
216 1 216 70.242 -131.399 0
39 1 39 67.3285 -133.821 0
118 1 118 87.4072 -135.226 0
376 2 376 88.4798 -134.997 0
120 1 120 102.951 -137.784 0
49 1 49 125.636 -136.944 0
111 1 111 133.337 -131.916 0
283 1 283 151.037 -124.84 0
255 1 255 -150.896 -119.428 0
269 1 269 -136.399 -113.232 0
82 1 82 -128.568 -112.737 0
96 1 96 -119.4 -115.827 0
340 2 340 -109.458 -113.08 0
222 1 222 -90.8858 -120.296 0
584 2 584 -86.7675 -116.854 0
169 1 169 -72.4258 -125.496 0
514 2 514 -52.5816 -123.24 0
80 1 80 -46.8203 -118.038 0
492 2 492 -28.4547 -122.151 0
117 1 117 -0.00831644 -113.815 0
360 2 360 6.39092 -110.995 0
61 1 61 16.477 -118.716 0
338 2 338 37.9577 -117.353 0
349 2 349 38.1868 -113.531 0
64 1 64 63.2786 -113.503 0
268 1 268 58.0991 -115.519 0
585 2 585 82.1501 -116.617 0
326 2 326 92.5268 -119.098 0
44 1 44 92.3577 -119.136 0
165 1 165 113.672 -123.437 0
434 2 434 132.273 -114.746 0
133 1 133 -155.42 -107.134 0
495 2 495 -140.762 -99.7339 0
124 1 124 -129.658 -106.727 0
430 2 430 -110.934 -104.936 0
130 1 130 -101.926 -109.962 0
137 1 137 -93.1724 -108.844 0
94 1 94 -76.3443 -107.555 0
580 2 580 -65.5837 -116.031 0
558 2 558 -52.6359 -104.374 0
374 2 374 -43.2401 -102.401 0
413 2 413 -24.2824 -104.392 0
447 2 447 -10.8625 -103.02 0
179 1 179 -8.77745 -110.087 0
528 2 528 7.71754 -102.186 0
416 2 416 24.6575 -102.484 0
273 1 273 47.6391 -102.126 0
249 1 249 59.1124 -111.738 0
524 2 524 64.5013 -104.606 0
156 1 156 77.3723 -107.212 0
532 2 532 101.745 -99.2323 0
335 2 335 102.228 -108.682 0
127 1 127 119.403 -108.511 0
123 1 123 136.393 -98.5975 0
45 1 45 147.649 -99.348 0
160 1 160 -141.06 -100.239 0
18 1 18 -130.352 -93.3685 0
87 1 87 -119.348 -90.966 0
420 2 420 -103.081 -93.6155 0
220 1 220 -96.0893 -93.9164 0
287 1 287 -79.2278 -89.3036 0
248 1 248 -56.3984 -91.0413 0
35 1 35 -42.8431 -98.1954 0
557 2 557 -33.5072 -95.8063 0
461 2 461 -24.7565 -92.2515 0
546 2 546 -0.351044 -89.7234 0
193 1 193 10.2174 -90.2259 0
412 2 412 15.7607 -92.338 0
122 1 122 24.1811 -103.882 0
29 1 29 44.72 -93.5264 0
379 2 379 56.1757 -90.6903 0
576 2 576 69.1316 -90.7268 0
241 1 241 78.6622 -94.4835 0
375 2 375 90.0558 -91.5531 0
284 1 284 99.7614 -100.31 0
199 1 199 115.999 -95.4907 0
15 1 15 133.624 -94.5283 0
599 2 599 146.585 -94.6671 0
431 2 431 156.172 -76.8531 0
2 1 2 -143.613 -88.9173 0
107 1 107 -135.213 -76.5917 0
485 2 485 -124.8 -73.7734 0
214 1 214 -111.505 -82.7031 0
280 1 280 -96.1393 -87.3089 0
250 1 250 -74.2839 -82.8534 0
406 2 406 -57.2382 -80.3718 0
475 2 475 -39.5396 -78.837 0
147 1 147 -31.4028 -85.0251 0
303 2 303 -19.2352 -84.5078 0
99 1 99 -11.927 -84.9004 0
550 2 550 -2.60828 -81.0101 0
215 1 215 19.2228 -83.5725 0
563 2 563 34.6679 -79.8069 0
578 2 578 41.9829 -82.5073 0
33 1 33 55.4126 -73.9643 0
409 2 409 61.632 -77.8581 0
30 1 30 78.8996 -70.4797 0
398 2 398 92.9728 -87.5739 0
519 2 519 109.56 -80.8279 0
168 1 168 115.757 -82.208 0
549 2 549 143.095 -83.2796 0
167 1 167 142.682 -82.9998 0
321 2 321 -154.913 -74.6545 0
290 1 290 -129.316 -61.5077 0
89 1 89 -125.058 -68.231 0
309 2 309 -98.5563 -67.6872 0
458 2 458 -96.6095 -65.7982 0
91 1 91 -76.1768 -68.9299 0
482 2 482 -66.7571 -64.8601 0
68 1 68 -60.9326 -64.2488 0
503 2 503 -42.5038 -69.543 0
293 1 293 -30.1624 -72.3188 0
407 2 407 -13.1591 -69.6387 0
389 2 389 -4.66623 -69.8065 0
342 2 342 8.11096 -77.2959 0
282 1 282 25.2779 -75.4666 0
108 1 108 30.5072 -64.9269 0
69 1 69 41.5609 -56.629 0
510 2 510 51.0351 -60.5969 0
25 1 25 70.98 -65.0416 0
362 2 362 85.681 -66.4101 0
236 1 236 96.8792 -66.0587 0
347 2 347 106.039 -65.206 0
372 2 372 118.766 -68.3818 0
538 2 538 141.252 -62.4341 0
317 2 317 153.759 -55.8133 0
512 2 512 -148.012 -56.9492 0
391 2 391 -131.354 -51.3305 0
153 1 153 -115.862 -61.5845 0
197 1 197 -109.254 -51.9261 0
155 1 155 -80.1554 -57.239 0
271 1 271 -66.8856 -56.1116 0
501 2 501 -40.4225 -55.648 0
555 2 555 -31.6606 -60.3724 0
22 1 22 -25.1254 -53.7928 0
213 1 213 -9.73697 -49.1749 0
138 1 138 11.5712 -54.4928 0
393 2 393 12.2368 -56.7855 0
42 1 42 32.7295 -52.8905 0
173 1 173 47.4011 -68.5126 0
452 2 452 54.0682 -55.1385 0
356 2 356 72.5524 -60.4775 0
541 2 541 78.899 -51.4078 0
295 1 295 95.6021 -57.9722 0
494 2 494 95.4205 -58.3064 0
278 1 278 117.434 -59.8818 0
327 2 327 129.208 -51.3007 0
78 1 78 142.225 -59.5516 0
106 1 106 -154.596 -47.7855 0
460 2 460 -146.601 -43.168 0
547 2 547 -116.168 -40.0451 0
418 2 418 -101.935 -39.7997 0
182 1 182 -97.2155 -44.7303 0
498 2 498 -76.6526 -50.414 0
378 2 378 -67.7175 -41.5819 0
457 2 457 -52.6012 -43.8971 0
469 2 469 -51.1463 -46.0169 0
79 1 79 -39.0578 -39.3494 0
344 2 344 -16.0814 -46.8477 0
258 1 258 -6.44643 -31.862 0
387 2 387 -2.10694 -46.9157 0
466 2 466 14.5671 -41.7384 0
51 1 51 31.5854 -44.2825 0
336 2 336 39.4337 -46.0398 0
4 1 4 58.4525 -36.969 0
113 1 113 66.0057 -37.1238 0
26 1 26 82.1669 -37.4451 0
1 1 1 93.2613 -41.5244 0
187 1 187 112.884 -43.0731 0
433 2 433 117.297 -43.2785 0
52 1 52 136.96 -40.6623 0
175 1 175 141.799 -46.4795 0
566 2 566 -153.228 -29.3521 0
408 2 408 -141.108 -40.3173 0
371 2 371 -127.66 -29.0705 0
581 2 581 -116.487 -32.4891 0
71 1 71 -103.963 -32.4803 0
149 1 149 -95.205 -33.107 0
211 1 211 -77.3609 -32.2263 0
259 1 259 -68.4945 -28.2466 0
48 1 48 -50.7375 -37.1154 0
439 2 439 -49.9217 -27.4422 0
341 2 341 -24.8625 -32.1193 0
209 1 209 -14.8225 -37.8273 0
331 2 331 -7.2971 -31.7802 0
499 2 499 16.9792 -23.3707 0
159 1 159 20.1005 -36.182 0
536 2 536 32.2339 -28.7091 0
59 1 59 42.5311 -28.391 0
235 1 235 56.9615 -32.8195 0
548 2 548 75.8005 -30.9414 0
88 1 88 89.4688 -30.5638 0
208 1 208 94.1435 -31.2532 0
509 2 509 109.948 -30.3959 0
357 2 357 111.717 -33.6748 0
382 2 382 130.076 -27.3796 0
41 1 41 138.319 -30.7292 0
198 1 198 -150.069 -8.49634 0
263 1 263 -145.976 -14.5509 0
304 2 304 -136.681 -19.7092 0
574 2 574 -119.715 -20.1042 0
240 1 240 -98.541 -22.4664 0
422 2 422 -97.1722 -5.79866 0
595 2 595 -78.0385 -16.8843 0
98 1 98 -53.9987 -8.61518 0
14 1 14 -45.1517 -20.9809 0
16 1 16 -28.852 -23.4596 0
178 1 178 -8.78211 -19.9022 0
564 2 564 -2.84948 -15.7547 0
243 1 243 7.59966 -19.2534 0
6 1 6 22.0831 -19.0409 0
252 1 252 33.4401 -12.5703 0
196 1 196 48.1996 -18.6256 0
260 1 260 56.7415 -12.5089 0
101 1 101 67.3955 -17.1439 0
479 2 479 86.0137 -15.3172 0
465 2 465 98.8261 -17.0226 0
150 1 150 105.255 -17.7472 0
13 1 13 118.965 -13.8621 0
219 1 219 137.766 -15.5109 0
345 2 345 139.275 -17.158 0
60 1 60 155.239 -7.697 0
121 1 121 -146.586 -8.61031 0
437 2 437 -128.608 -8.43188 0
330 2 330 -120.847 -6.79409 0
109 1 109 -108.134 -15.3664 0
9 1 9 -94.7082 -7.24364 0
513 2 513 -86.7772 -7.80249 0
139 1 139 -73.004 -12.163 0
544 2 544 -52.9577 -7.27317 0
162 1 162 -43.8226 -6.32319 0
194 1 194 -34.0699 -4.33159 0
533 2 533 -12.7775 -7.22491 0
339 2 339 -3.19665 -9.10272 0
314 2 314 5.72745 -4.22363 0
383 2 383 9.81761 -1.70383 0
217 1 217 29.7047 3.53734 0
504 2 504 47.558 -5.24452 0
325 2 325 65.3004 0.149564 0
403 2 403 72.7176 -10.5921 0
184 1 184 84.5695 -2.44823 0
311 2 311 90.4148 -12.3201 0
229 1 229 107.482 -3.32766 0
292 1 292 119.968 -2.80802 0
115 1 115 132.142 -0.619705 0
429 2 429 151.795 -18.0506 0
559 2 559 -141.924 1.15497 0
218 1 218 -139.678 -0.768033 0
192 1 192 -122.614 9.31683 0
467 2 467 -109.804 5.16993 0
126 1 126 -96.3823 5.56875 0
491 2 491 -79.494 1.09678 0
203 1 203 -66.5687 2.35269 0
84 1 84 -57.8602 8.04838 0
359 2 359 -45.2556 0.366393 0
478 2 478 -34.9449 6.33459 0
508 2 508 -22.9459 12.918 0
306 2 306 -9.12862 13.6889 0
388 2 388 6.39422 8.56446 0
507 2 507 31.202 3.97347 0
593 2 593 44.215 -0.710174 0
502 2 502 63.5216 7.09723 0
47 1 47 70.6702 11.3374 0
472 2 472 81.1012 6.62515 0
322 2 322 91.5846 8.00739 0
560 2 560 103.568 10.8586 0
300 1 300 114.366 11.1167 0
267 1 267 126.263 3.94166 0
531 2 531 137.586 3.756 0
93 1 93 148.188 17.75 0
506 2 506 -141.069 10.9237 0
480 2 480 -133.792 19.4023 0
586 2 586 -117.526 22.3367 0
185 1 185 -105.534 18.5631 0
105 1 105 -101.524 15.5795 0
265 1 265 -83.923 25.1257 0
297 1 297 -63.2214 18.4907 0
428 2 428 -58.7697 8.36447 0
195 1 195 -40.5353 20.1675 0
417 2 417 -25.3394 18.248 0
12 1 12 -19.3883 18.6926 0
237 1 237 -0.534034 14.5914 0
53 1 53 3.22975 15.4505 0
577 2 577 21.2034 22.3974 0
275 1 275 30.5346 18.0575 0
462 2 462 45.201 17.1383 0
254 1 254 55.4708 14.7985 0
102 1 102 60.2843 16.0508 0
464 2 464 83.7633 16.3101 0
368 2 368 89.2486 21.3061 0
583 2 583 109.8 18.7421 0
590 2 590 123.243 20.7443 0
205 1 205 122.709 20.9124 0
190 1 190 138.716 16.2385 0
223 1 223 151.282 25.9655 0
251 1 251 -143.763 36.5204 0
435 2 435 -133.848 35.2715 0
477 2 477 -121.301 30.7389 0
427 2 427 -112.192 29.9795 0
183 1 183 -89.0791 27.3594 0
448 2 448 -77.5605 28.7018 0
172 1 172 -64.6928 34.1259 0
444 2 444 -49.5489 29.285 0
343 2 343 -34.3865 30.324 0
459 2 459 -12.3145 24.9129 0
470 2 470 -0.768797 38.0063 0
424 2 424 6.61819 33.186 0
224 1 224 24.1034 26.0961 0
212 1 212 34.4268 26.2679 0
201 1 201 43.6869 24.7534 0
103 1 103 57.2818 32.8518 0
128 1 128 69.7463 35.6818 0
384 2 384 75.3672 35.8907 0
436 2 436 91.024 25.1022 0
204 1 204 98.0053 41.1909 0
496 2 496 120.421 32.7329 0
146 1 146 130.603 29.8191 0
569 2 569 146.282 31.4653 0
163 1 163 154.889 38.579 0
361 2 361 -145.613 47.8698 0
141 1 141 -129.943 39.4096 0
116 1 116 -104.869 41.3522 0
17 1 17 -93.4439 40.6469 0
489 2 489 -79.0831 46.4923 0
561 2 561 -66.6313 50.9348 0
134 1 134 -58.4192 43.1008 0
200 1 200 -41.5853 44.5857 0
46 1 46 -36.0537 33.2227 0
542 2 542 -20.7785 45.0753 0
227 1 227 -15.5701 37.6119 0
10 1 10 8.87749 41.5576 0
332 2 332 16.994 44.2227 0
545 2 545 43.8688 46.8712 0
554 2 554 63.074 42.4786 0
562 2 562 70.4297 41.0693 0
353 2 353 78.1147 47.1875 0
239 1 239 98.1955 42.3802 0
365 2 365 105.837 43.0833 0
312 2 312 119.506 43.8779 0
410 2 410 143.128 44.4629 0
572 2 572 -150.71 55.2879 0
588 2 588 -137.315 51.4549 0
125 1 125 -127.718 56.8393 0
129 1 129 -115.546 57.357 0
399 2 399 -111.778 49.2036 0
142 1 142 -92.3926 61.5811 0
305 2 305 -79.1624 61.8258 0
534 2 534 -68.5063 55.0329 0
390 2 390 -58.9243 52.3529 0
319 2 319 -51.1571 56.4352 0
253 1 253 -34.1198 51.2999 0
176 1 176 -18.8201 61.5366 0
527 2 527 -5.25421 60.6087 0
261 1 261 5.30527 53.7949 0
369 2 369 22.9265 58.8156 0
579 2 579 34.3794 56.4881 0
257 1 257 40.9363 57.1825 0
90 1 90 53.068 60.2406 0
294 1 294 72.635 58.1878 0
313 2 313 76.7428 52.2668 0
66 1 66 94.4466 61.319 0
136 1 136 104.839 48.2019 0
450 2 450 112.235 52.3652 0
318 2 318 132.161 54.3418 0
537 2 537 144.096 66.0847 0
37 1 37 -141.281 60.0885 0
414 2 414 -133.856 72.489 0
85 1 85 -117.467 68.714 0
55 1 55 -111.702 71.033 0
177 1 177 -91.7089 77.673 0
296 1 296 -81.3508 76.7303 0
329 2 329 -68.8111 73.8424 0
573 2 573 -65.2644 67.4904 0
3 1 3 -56.6341 74.5276 0
540 2 540 -25.4713 71.6538 0
438 2 438 -15.8636 68.4931 0
58 1 58 -9.67102 67.0598 0
73 1 73 3.85478 62.8657 0
301 2 301 15.7261 61.3982 0
381 2 381 38.2155 67.8016 0
54 1 54 42.3874 70.5114 0
385 2 385 64.9187 75.1833 0
231 1 231 70.7731 60.0734 0
43 1 43 85.8796 59.678 0
530 2 530 88.7296 70.4012 0
135 1 135 99.9509 69.3213 0
288 1 288 124.677 70.7482 0
405 2 405 140.167 70.1349 0
20 1 20 151.218 75.9705 0
279 1 279 -145.439 85.4652 0
152 1 152 -127.577 80.529 0
441 2 441 -122.989 77.6774 0
323 2 323 -106.846 79.2188 0
552 2 552 -92.398 77.5368 0
40 1 40 -85.7162 77.299 0
104 1 104 -66.7642 86.4063 0
328 2 328 -55.1992 88.5723 0
440 2 440 -49.272 77.4654 0
232 1 232 -34.1673 82.6165 0
449 2 449 -24.151 85.8625 0
570 2 570 -8.96867 79.9213 0
289 1 289 0.733801 80.9438 0
70 1 70 20.0074 83.3726 0
571 2 571 37.7317 79.2979 0
207 1 207 43.3828 73.3724 0
454 2 454 59.0205 81.1452 0
34 1 34 62.7823 82.4067 0
443 2 443 78.5033 83.8295 0
50 1 50 97.2792 81.2736 0
553 2 553 104.308 83.2278 0
442 2 442 121.658 90.0146 0
351 2 351 130.449 78.7716 0
582 2 582 146.408 76.7022 0
63 1 63 -153.519 99.2777 0
206 1 206 -145.904 87.9711 0
75 1 75 -127.032 93.7767 0
272 1 272 -111.178 99.2012 0
488 2 488 -110.276 98.3236 0
246 1 246 -89.8401 95.4828 0
31 1 31 -74.0477 95.471 0
386 2 386 -51.3199 93.4973 0
367 2 367 -44.7816 86.8001 0
334 2 334 -31.6441 91.5209 0
228 1 228 -15.2532 99.317 0
56 1 56 -6.2313 91.0716 0
225 1 225 4.95574 89.5163 0
567 2 567 17.8767 91.8374 0
307 2 307 31.071 88.6543 0
281 1 281 49.5841 90.2874 0
493 2 493 63.6796 88.9535 0
525 2 525 77.8661 86.0038 0
463 2 463 91.1084 100.279 0
170 1 170 111.131 93.8437 0
363 2 363 110.6 85.6458 0
164 1 164 135.964 99.0329 0
575 2 575 146.571 98.1674 0
481 2 481 149.33 100.774 0