fix fLANG all langevin 1.0 1.0 1.0 100
neigh_modify exclude molecule/intra all
fix rigidNVE linked_vesicle rigid/nve molecule
  1 rigid bodies with 5 atoms
fix NVE synapsin nve 1.0 1.0 1.0

    ##======================================##
    ## Output
    ##======================================##

thermo 1000
thermo_style custom step temp press etotal epair
thermo_modify flush yes
timestep 0.01

    ##======================================##
    ## Equilibration before output
    ##======================================##


    ##======================================##
    ## Run with output
    ##======================================##

fix enforce_2d all enforce2d
dump 2 all custom 1000 Results_eps_attr1.1_eps_rep1_range2_attr_with_repFalse_n_synapsin400_n_vesicles1/Movie_2d_eps_attr1.1_eps_rep1_range2_attr_with_repFalse_n_synapsin400_n_vesicles1.xyz id type mol x y z
run 1000000
Generated 0 of 3 mixed pair_coeff terms from geometric mixing rule
Neighbor list info ...
  update every 1 steps, delay 1 steps, check yes
  max neighbors/atom: 2000, page size: 100000
  master list distance cutoff = 11.52462
  ghost atom cutoff = 11.52462
  binsize = 5.7623102, bins = 55 55 1
  1 neighbor lists, perpetual/occasional/extra = 1 0 0
  (1) pair cosine/squared, perpetual
      attributes: half, newton on
      pair build: half/bin/newton
      stencil: half/bin/2d
      bin: standard
Per MPI rank memory allocation (min/avg/max) = 8.526 | 8.526 | 8.526 Mbytes
   Step          Temp          Press          TotEng         E_pair    
         0   0.99441908    -0.013071225    0.98336998     0            
      1000   1.052877       0.0040548885   1.0411809      2.5044906e-06
      2000   0.97902644     0.0030040622   0.96849889     0.00035052091
      3000   1.0601207      0.0035583022   1.0483416      0            
      4000   1.0466423      0.0043625821   1.0350129      0            
      5000   1.0005436      0.0035020426   0.98945454     2.8061539e-05
      6000   0.97028404     0.0030784247   0.95950311     0            
      7000   0.9429228      0.0035389451   0.9342467      0.001800821  
      8000   1.070792       0.0042930144   1.0588943      0            
      9000   1.099818       0.0040939823   1.0875978      0            
     10000   1.0641936      0.0047807115   1.0522405     -0.00012877475
     11000   0.96178919     0.0044414683   0.95110265     0            
     12000   0.9292122      0.0051589267   0.91888762     0            
     13000   0.9556457      0.0032731617   0.94502741     0            
     14000   1.0606238      0.0040582801   1.0488391      0            
     15000   0.96710281     0.0039745461   0.95635722     0            
     16000   0.96329144     0.0041700914   0.95261669     2.8488409e-05
     17000   1.0127927      0.004392507    1.0014214     -0.00011802592
     18000   1.0864246      0.0046877681   1.0719297     -0.0024235269 
     19000   0.99298659     0.0040269721   0.98195341     0            
     20000   0.97975113     0.0038226825   0.96886501     0            
     21000   0.96164025     0.0048207559   0.95194265     0.0009872908 
     22000   0.90266084     0.0038128489   0.89232768    -0.00030359955
     23000   0.91144476     0.0038773821   0.8993055     -0.002012097  
     24000   0.95067618     0.0051043901   0.94005763    -5.5482373e-05
     25000   0.95110407     0.0036231294   0.94099893     0.00046269053
     26000   0.96679953     0.0034440782   0.95605731     0            
     27000   1.0016496      0.003911937    0.99080779     0.00028763488
     28000   1.0208193      0.004339827    1.0094768      0            
     29000   1.0317691      0.0037467453   1.020305       0            
     30000   0.97528985     0.0035862151   0.9644533      0            
     31000   0.98301627     0.003284146    0.97209387     0            
     32000   1.0431168      0.0032356681   1.0315266      0            
     33000   1.0308725      0.0047914784   1.0194184      0            
     34000   0.94526597     0.0042950627   0.93476302     0            
     35000   1.0547078      0.0031282636   1.0429888      0            
     36000   0.99374516     0.0036389418   0.98270355     0            
     37000   1.0219904      0.0045242917   1.0109342      0.00029929582
     38000   0.99495848     0.0039129212   0.98390338     0            
     39000   0.89989904     0.0042119665   0.88990016     0            
     40000   1.0434163      0.003250968    1.0318228      0            
     41000   0.94150787     0.0040737717   0.93104667     0            
     42000   1.0413125      0.0040407854   1.0297424      0            
     43000   0.98789024     0.003480547    0.97691368     0            
     44000   1.0519857      0.0042883883   1.0402969      0            
     45000   1.022556       0.0046707204   1.0137357      0.0025414561 
     46000   1.0362977      0.0041812532   1.0247833      0            
     47000   0.99587157     0.0054921649   0.98480633     0            
     48000   1.0572943      0.0042892679   1.0455466      0            
     49000   1.0048561      0.0039835773   0.99369104     0            
     50000   0.96007141     0.003732233    0.94943476     3.0808611e-05
     51000   1.0199376      0.0047474651   1.006671      -0.0019339581 
     52000   1.1020498      0.0056673172   1.0875758     -0.0022290159 
     53000   1.0385131      0.0040447086   1.0269741      0            
     54000   1.0659893      0.0046407776   1.0542727      0.00012775009
     55000   0.98459909     0.003379677    0.9736591      0            
     56000   1.0366168      0.0040965976   1.0237763     -0.0013225414 
     57000   1.00136        0.0028058038   0.99023379     0            
     58000   0.97326805     0.0040264624   0.96245396     0            
     59000   0.99051267     0.0055177823   0.97950698     0            
     60000   0.9946763      0.0036681675   0.98362434     0            
     61000   1.0545092      0.0037470412   1.0427924      0            
     62000   0.983111       0.0051166182   0.97232359     0.00013604333
     63000   1.0704067      0.0048067376   1.0585133      0            
     64000   0.97805937     0.0037355138   0.96719204     0            
     65000   1.0581373      0.0046592311   1.0463803      0            
     66000   1.0429137      0.0038923268   1.0313372      1.1432875e-05
     67000   0.99742171     0.0045742216   0.98633925     0            
     68000   0.99025951     0.0031875911   0.97925663     0            
     69000   0.99233083     0.0045693421   0.98130493     0            
     70000   1.0391122      0.0042449134   1.0275665      0            
     71000   0.96394257     0.0034520572   0.95323209     0            
     72000   1.0483263      0.0043276573   1.0366782      0            
     73000   0.98145862     0.0039849462   0.97055352     0            
     74000   0.92586173     0.0034874396   0.91557438     0            
     75000   1.0243624      0.0038874006   1.0129806      0            
     76000   1.0546124      0.0047838156   1.0428945      0            
     77000   1.0329047      0.0037117214   1.021428       0            
     78000   0.9905218      0.0042282673   0.979516       0            
     79000   1.0303149      0.0037795231   1.018867       0            
     80000   1.083854       0.0044982424   1.0718112      0            
     81000   0.9783335      0.0035301146   0.96746312     0            
     82000   1.0107773      0.0035570053   0.99954646     0            
     83000   1.0036599      0.0044340707   0.9925081      0            
     84000   0.92439761     0.0037092318   0.91412653     0            
     85000   0.96199639     0.0042065896   0.95130754     0            
     86000   1.0040908      0.0037490762   0.99293424     0            
     87000   0.96599007     0.0035554041   0.95525685     0            
     88000   1.009907       0.0050249813   0.99868582     0            
     89000   0.97506817     0.0051789813   0.96423808     4.0025824e-06
     90000   0.98137652     0.0049211498   0.97047234     0            
     91000   1.0021747      0.0045642392   0.99103938     0            
     92000   1.0054683      0.0038908103   0.99429645     0            
     93000   1.0603216      0.004831953    1.0485402      0            
     94000   1.0149622      0.0036796887   1.0036849      0            
     95000   0.98918199     0.0038961397   0.97819905     7.9746202e-06
     96000   1.044377       0.0051712204   1.0327728      0            
     97000   0.94218273     0.0035910234   0.93171403     0            
     98000   0.96984678     0.0034888253   0.95907071     0            
     99000   0.98715103     0.0036583928   0.97618269     0            
    100000   0.97412526     0.0040455925   0.96330165     0            
    101000   1.0939572      0.0039846907   1.0818021      0            
    102000   0.97393243     0.0042931937   0.96311096     0            
    103000   1.0826837      0.0048688063   1.0706538      0            
    104000   0.96886261     0.003182069    0.95809747     0            
    105000   1.0035446      0.004010766    0.99239406     0            
    106000   0.96049022     0.0034399088   0.9498181      0            
    107000   1.0221934      0.004070344    1.0108357      0            
    108000   0.95601025     0.0047296542   0.9455515      0.00016358131
    109000   0.97803305     0.0042659395   0.96522389    -0.0019421234 
    110000   1.03957        0.0038776648   1.0256191     -0.0024001092 
    111000   1.034          0.004002209    1.0224498     -6.1328108e-05
    112000   1.0118335      0.004044939    1.0005909      0            
    113000   1.026103       0.0038546417   1.0126794     -0.0020225006 
    114000   1.0187136      0.0032511636   1.004725      -0.0026696435 
    115000   1.1217323      0.0047302085   1.1092148     -5.3789028e-05
    116000   1.0372731      0.0035422849   1.0257479      0            
    117000   1.0321415      0.0048630945   1.0196009     -0.0010723701 
    118000   1.079912       0.0041803482   1.0651596     -0.0027534594 
    119000   1.0290963      0.0036129766   1.0176619      0            
    120000   1.0279184      0.0046926196   1.013519      -0.0029780113 
    121000   1.0963684      0.0042910476   1.0841865      0            
    122000   0.98399946     0.0037624561   0.97306614     0            
    123000   1.051899       0.0044045466   1.0402112      0            
    124000   0.95884201     0.0032903363   0.94818821     0            
    125000   0.98807825     0.0042103838   0.9770996      0            
    126000   1.0118279      0.0042700515   1.0005854      0            
    127000   0.98551352     0.0037904121   0.97456337     0            
    128000   1.073134       0.0038004568   1.0612103      0            
    129000   1.0213401      0.0036906882   1.0099919      0            
    130000   0.98671061     0.0043782009   0.97574716     0            
    131000   1.0066883      0.0044197391   0.99562361     0.00012075623
    132000   0.92857478     0.0035387469   0.91825729     0            
    133000   0.99950929     0.0036125717   0.98840363     0            
    134000   1.0554347      0.0035956168   1.0437077      0            
    135000   1.0545242      0.0036084155   1.0420442     -0.00076308421
    136000   0.89480633     0.0035284976   0.88486404     0            
    137000   0.97534651     0.0044505105   0.96450933     0            
    138000   0.96499686     0.0039023723   0.95341649    -0.00085818746
    139000   0.97641174     0.0042650107   0.96587568     0.00031295204
    140000   0.98741304     0.0048519861   0.97644178     0            
    141000   0.9946972      0.0043805144   0.98364501     0            
    142000   1.0309853      0.0041256524   1.0195231     -6.7792188e-06
    143000   0.91738402     0.0042201719   0.90719086     0            
    144000   1.0633148      0.0057438033   1.0536773      0.0021770159 
    145000   0.90710586     0.0038760493   0.89666851    -0.00035839687
    146000   0.94719056     0.0040678988   0.9361574     -0.00050881966
    147000   1.0379888      0.0038660478   1.0262477     -0.0002078647 
    148000   0.99007693     0.0038544305   0.97907607     0            
    149000   0.9255662      0.0042086351   0.91453353    -0.00074860069
    150000   1.0157625      0.0044303644   1.0041569     -0.00031935257
    151000   0.97663216     0.003512497    0.96351037    -0.0022703165 
    152000   1.0751564      0.004588605    1.0632102      0            
    153000   0.99729236     0.0045850103   0.98621133     0            
    154000   1.0404048      0.0048921593   1.0288448      0            
    155000   1.0846129      0.0043585261   1.0741328      0.0015712161 
    156000   1.0848002      0.0041068946   1.0720611     -0.00068578193
    157000   0.97045883     0.0042802985   0.95967596     0            
    158000   1.0459045      0.0051402498   1.0343754      9.2050346e-05
    159000   0.98457072     0.004412963    0.97363104     0            
    160000   1.0074299      0.0041513489   0.99623623     0            
    161000   0.95295438     0.0039654224   0.942366       0            
    162000   1.0299087      0.0051754625   1.0184653      0            
    163000   1.0229177      0.0054467196   1.0115559      3.9171925e-06
    164000   1.0324661      0.0037284895   1.0209943      0            
    165000   1.0540738      0.0047367583   1.0423729      1.104558e-05 
    166000   0.93909069     0.0042990963   0.92865635     0            
    167000   1.0131955      0.004747448    1.0019377      0            
    168000   1.0875316      0.0041021287   1.07283       -0.0026179276 
    169000   1.0444504      0.0054342892   1.0328454      0            
    170000   0.99689938     0.0029937759   0.98383887    -0.001983859  
    171000   1.0155022      0.0037556478   1.0033762     -0.00084255868
    172000   1.0537645      0.0040514309   1.042056       0            
    173000   1.0287313      0.0046530746   1.0173009      0            
    174000   1.0616761      0.004168346    1.0498797      0            
    175000   0.98162277     0.0038081607   0.97071585     0            
    176000   0.94670935     0.0040286865   0.93619036     0            
    177000   0.99158303     0.0043329525   0.98056545     0            
    178000   0.96448589     0.0038404302   0.95304913    -0.00072025127
    179000   1.0117777      0.005148556    0.99974317    -0.00079256983
    180000   0.96967609     0.00369024     0.95651723    -0.0023846871 
    181000   0.98829511     0.0036943576   0.97478822    -0.0025258322 
    182000   0.98795963     0.004421878    0.97633208    -0.00065021637
    183000   1.0208767      0.0042268118   1.0101497      0.00061606337
    184000   1.0635554      0.0049406351   1.0517381      0            
    185000   1.0283285      0.0033042229   1.0136832     -0.0032194753 
    186000   0.97748382     0.0049343327   0.96595007    -0.00067282314
    187000   0.97005378     0.0038399104   0.9592754      0            
    188000   1.0393615      0.0040578719   1.0278131      0            
    189000   0.91954092     0.0037015481   0.90932379     0            
    190000   1.0774298      0.0034453396   1.0654583      0            
    191000   1.0471315      0.0039247077   1.0329105     -0.0025862679 
    192000   1.0499528      0.0040395769   1.0382867      0            
    193000   1.0197039      0.0045331209   1.0083738      0            
    194000   0.98040705     0.004237343    0.96967761     0.00016396867
    195000   1.0569642      0.0037999341   1.0450473     -0.00017282032
    196000   1.0300724      0.0033673735   1.0184655     -0.00016167474
    197000   0.98207091     0.0047387648   0.97075728    -0.00040173707
    198000   0.93266479     0.0038683414   0.92230184     0            
    199000   0.94901647     0.0038089711   0.93873926     0.00026742444
    200000   0.98831895     0.0038164344   0.97733763     0            
    201000   1.0109529      0.0047516261   0.99951217    -0.00020796058
    202000   1.0098902      0.0044151886   0.99866919     0            
    203000   0.95652593     0.0040396094   0.94589787     0            
    204000   0.96866933     0.0028808003   0.95790634     0            
    205000   0.97582348     0.0035613483   0.964981       0            
    206000   0.97639312     0.0034257178   0.96554431     0            
    207000   1.0452704      0.0043796269   1.033068      -0.00058822537
    208000   0.96009945     0.0041995239   0.95413741     0.0047057262 
    209000   1.0044349      0.004193031    0.99373575     0.00046126766
    210000   1.0058344      0.0037383567   0.99539122     0.00073278514
    211000   1.0609843      0.0050604129   1.0475925     -0.0016031547 
    212000   0.98210736     0.0049207019   0.97166278     0.00046772288
    213000   0.97048523     0.0045110088   0.95727605    -0.0024260144 
    214000   1.0291435      0.0045608346   1.0177086      0            
    215000   1.0022384      0.0032651336   0.99110245     0            
    216000   0.99676702     0.0040494879   0.98569183     0            
    217000   0.95464733     0.0043759385   0.94243318    -0.0016069502 
    218000   1.019952       0.003698299    1.008231      -0.00038820969
    219000   0.99185064     0.0037723949   0.98083007     0            
    220000   1.062873       0.0044612681   1.0485029     -0.002560415  
    221000   1.0979852      0.0051234591   1.0850936     -0.00069182522
    222000   1.01418        0.004123142    1.0029113      0            
    223000   0.9639517      0.0039462128   0.95324113     0            
    224000   1.0064757      0.004374202    0.99529265     0            
    225000   1.0054677      0.0043056929   0.99163441    -0.0026614232 
    226000   0.96812891     0.0037369749   0.95737192     0            
    227000   1.0519132      0.0039435393   1.0402253      0            
    228000   1.0357274      0.0037296868   1.0267389      0.0025196093 
    229000   1.0881475      0.0049007888   1.0760569      0            
    230000   0.99126566     0.0052335592   0.98025159     0            
    231000   1.035902       0.0036163168   1.024392       0            
    232000   1.0659979      0.0048373943   1.0541534      0            
    233000   1.0182868      0.00401784     1.0069725      0            
    234000   0.94455308     0.0044077718   0.93405805     0            
    235000   1.0062986      0.0041808436   0.99467819    -0.00043930925
    236000   1.0871014      0.00517873     1.072869      -0.0021534503 
    237000   1.0547948      0.0037459432   1.0430749      0            
    238000   0.99448474     0.0034465498   0.98343491     0            
    239000   0.9199381      0.0040046272   0.90971657     0            
    240000   1.0002545      0.0033494396   0.98914056     0            
    241000   0.91882006     0.0036300061   0.90861095     0            
    242000   0.97625676     0.0030990071   0.96540946     0            
    243000   0.93322804     0.0032198421   0.92285884     0            
    244000   0.93332238     0.0043657572   0.92295214     0            
    245000   0.93647617     0.0038820719   0.9260542     -1.6684202e-05
    246000   0.96204138     0.0034965222   0.95230334     0.00095130669
    247000   1.1158309      0.0042013675   1.1034328      0            
    248000   0.97713391     0.0038960446   0.96650237     0.00022550367
    249000   1.0777199      0.0039785719   1.0657452      0            
    250000   0.96536898     0.0037424563   0.95464265     0            
    251000   0.93638241     0.002447653    0.92597816     0            
    252000   0.95910286     0.0040554913   0.94758146    -0.00086470758
    253000   0.99597428     0.0036016779   0.9849079      0            
    254000   1.0172757      0.0044179104   1.005907      -6.5632578e-05
    255000   0.94596212     0.0033502636   0.93470645    -0.00074497926
    256000   0.94564921     0.0040698189   0.93447109    -0.00067091358
    257000   1.0004668      0.0035961967   0.98517503    -0.0041755227 
    258000   1.0306608      0.0034514104   1.019209       0            
    259000   1.0328862      0.0045816229   1.0214097      0            
    260000   0.91430843     0.0029194005   0.90414945     0            
    261000   1.0025442      0.0036892468   0.99140485     0            
    262000   0.96566805     0.0047510071   0.95236343    -0.0025749754 
    263000   0.94936707     0.0031135636   0.93652225    -0.0022963006 
    264000   0.99763644     0.0040949622   0.9832235     -0.0033280928 
    265000   1.03465        0.0038040322   1.0231583      4.439386e-06 
    266000   0.97976924     0.0043347128   0.96888292     0            
    267000   0.92028655     0.0034559181   0.90988764    -0.0001734999 
    268000   0.9945243      0.0042838112   0.98293959    -0.00053444619
    269000   0.9694296      0.0032199707   0.95777283    -0.00088533289
    270000   1.049931       0.0056076645   1.0382651      0            
    271000   1.0241815      0.0043939279   1.0128017      0            
    272000   0.95391941     0.0037733873   0.94332031     0            
    273000   1.0408852      0.0047846438   1.0276222     -0.0016976573 
    274000   1.0003293      0.0047087984   0.99095486     0.0017403038 
    275000   0.98417383     0.0036736062   0.97323857     0            
    276000   1.014454       0.0031157846   1.0031823      0            
    277000   0.89018265     0.0038250092   0.88029173     0            
    278000   1.0393481      0.0037963467   1.0277998      0            
    279000   0.96625006     0.0043254784   0.95551395     0            
    280000   1.0026008      0.0038076593   0.99146079     0            
    281000   1.0626639      0.0044960234   1.0508565      0            
    282000   1.0426574      0.0045256342   1.031882       0.00080963368
    283000   0.90675982     0.0032018635   0.89668471     0            
    284000   1.0276767      0.0039774431   1.0162581      0            
    285000   1.0495397      0.0043055978   1.0378782      0            
    286000   1.0139204      0.004312409    1.0026546      0            
    287000   1.0135606      0.0027806949   1.0022988      0            
    288000   0.93573597     0.0045563069   0.92533891     0            
    289000   0.96851815     0.0033791524   0.95775953     2.6901372e-06
    290000   1.0020666      0.0043144488   0.99093252     0            
    291000   0.95913135     0.0040723012   0.94871587     0.00024153577
    292000   0.99130333     0.0041977129   0.98028885     0            
    293000   0.9988269      0.0048707696   0.98772882     0            
    294000   0.95906705     0.0034165295   0.94841075     0            
    295000   1.0390962      0.0038397533   1.0275507      0            
    296000   0.90314602     0.0030562068   0.8932079      9.6830337e-05
    297000   1.0357416      0.0034506202   1.0241005     -0.00013286022
    298000   1.0712682      0.003668298    1.0593653      0            
    299000   0.94541637     0.0036691465   0.93491174     0            
    300000   0.99023443     0.0040992496   0.98013667     0.00090484271
    301000   1.0268243      0.0040629217   1.0154151      0            
    302000   0.97745751     0.0049533048   0.96659688     0            
    303000   1.0122679      0.0040270564   1.0010205      0            
    304000   0.97585103     0.0035571178   0.96500824     0            
    305000   1.0020684      0.0037532162   0.99394725     0.0030129223 
    306000   0.99842914     0.0034753701   0.98733549     0            
    307000   1.0393824      0.0032178828   1.0278337      0            
    308000   1.0029682      0.0052579699   0.99320581     0.0013816539 
    309000   0.91106638     0.0034115817   0.90040647    -0.00053694586
    310000   1.0017053      0.0045567214   0.99063205     5.6766876e-05
    311000   0.99426149     0.0051224994   0.98313312    -8.1020968e-05
    312000   1.043074       0.0045307095   1.0314843      0            
    313000   0.98918534     0.0039228635   0.97979016     0.001595765  
    314000   0.92285788     0.0039142496   0.9126039      0            
    315000   1.0795015      0.0041217092   1.0685283      0.0010212309 
    316000   0.97961634     0.0043794101   0.96816792    -0.00056379433
    317000   0.92609146     0.0039095314   0.91541487    -0.00038668178
    318000   1.0411337      0.0043925937   1.027041      -0.0025245998 
    319000   1.0557839      0.0044663074   1.0453961      0.0013431133 
    320000   0.97402105     0.0051173946   0.96319859     0            
    321000   0.91216314     0.0030743392   0.90202799     0            
    322000   1.0252326      0.003591435    1.0137947     -4.6440267e-05
    323000   1.0781794      0.0043086486   1.0661996      0            
    324000   0.94654278     0.0028002844   0.93458963    -0.0014360101 
    325000   0.98324319     0.0044717325   0.97231826     0            
    326000   1.0909085      0.0048332651   1.0787873      0            
    327000   1.0409912      0.0055048535   1.0280927     -0.0013319563 
    328000   1.002933       0.0040614115   0.9917893      0            
    329000   0.97164297     0.0034145535   0.96102897     0.00018203574
    330000   1.0591897      0.0040281568   1.0485522      0.0011312525 
    331000   1.0124717      0.0037145121   1.001222       0            
    332000   1.0619422      0.004727459    1.0501428      0            
    333000   1.0111097      0.0037843663   0.99726395    -0.0026111599 
    334000   1.0111206      0.0040811151   0.99988477    -1.1175294e-06
    335000   0.93970602     0.0037357371   0.92919184    -7.29974e-05  
    336000   1.0330467      0.003453463    1.0211        -0.00046840594
    337000   1.0507514      0.0049151896   1.0390764      0            
    338000   1.0514108      0.0046921415   1.0395557     -0.00017275257
    339000   1.0428171      0.0036200174   1.0312302      0            
    340000   1.0353918      0.0041427173   1.0225085     -0.001378998  
    341000   0.97727245     0.0033612777   0.96382188    -0.0025919876 
    342000   0.956431       0.0040782203   0.94580399     0            
    343000   1.0583953      0.003631378    1.0466354      0            
    344000   1.1093692      0.0046615741   1.0959495     -0.0010933912 
    345000   0.95192445     0.0035579507   0.94129342    -5.4092072e-05
    346000   1.0040932      0.0043509122   0.99260293    -0.00033363409
    347000   1.0908342      0.0045375702   1.0787138      0            
    348000   1.0209908      0.0040347877   1.0096464      0            
    349000   1.0261767      0.0042392649   1.0147747      0            
    350000   0.91415305     0.00346256     0.90404159     4.579482e-05 
    351000   0.97196446     0.0038794934   0.96116485     0            
    352000   1.0925357      0.004590836    1.0809606      0.00056421993
    353000   1.0085506      0.0052692289   0.99734452     0            
    354000   0.94108699     0.0040547857   0.93063046     0            
    355000   0.98345578     0.0037797631   0.9725285      0            
    356000   1.0126784      0.0041391152   1.0014265      0            
    357000   0.99028115     0.0047138469   0.97927803     0            
    358000   0.95715308     0.0046497932   0.94651804     0            
    359000   1.0001307      0.0047865663   0.9890181      0            
    360000   0.9804583      0.0038336512   0.96956432     0            
    361000   1.0717144      0.0040923412   1.0598065      0            
    362000   1.0590187      0.0046533799   1.0472518      0            
    363000   1.0077245      0.0039101344   0.99652761     0            
    364000   0.95249656     0.0043828631   0.94191327     0            
    365000   0.98383119     0.0034919543   0.97289973     0            
    366000   1.0152158      0.0048176622   1.0020551     -0.0018805269 
    367000   1.0039791      0.0039242573   0.99282377     0            
    368000   0.95177159     0.0035269428   0.94119635     0            
    369000   0.88962518     0.0033216405   0.87974045     0            
    370000   0.98099681     0.0039261356   0.97009685     0            
    371000   1.0365963      0.0049521641   1.0250786      0            
    372000   1.0551528      0.0027338103   1.0434289      0            
    373000   0.9769667      0.0030926157   0.96611151     0            
    374000   0.98860565     0.0036698516   0.97762114     0            
    375000   1.0329818      0.0038381032   1.021642       0.00013772711
    376000   0.98284092     0.0043190186   0.97192047     0            
    377000   0.96046908     0.0035612723   0.9497972      0            
    378000   1.0380379      0.0048703985   1.0265041      0            
    379000   0.99401409     0.004076695    0.98296949     0            
    380000   0.94470887     0.0037207826   0.9342121      0            
    381000   1.0042504      0.0037401036   0.99309211     0            
    382000   0.9906836      0.0042912456   0.98103496     0.0013589579 
    383000   1.0595357      0.0041776916   1.0477631      0            
    384000   1.0406954      0.0043234018   1.0291321      0            
    385000   0.99138424     0.003890209    0.98130207     0.00093320566
    386000   1.0548925      0.0041048461   1.0420617     -0.0011098394 
    387000   0.94362333     0.0038507714   0.93313863     0            
    388000   0.98013582     0.0037278514   0.96924542     0            
    389000   0.99813759     0.002917963    0.98704717     0            
    390000   0.99011922     0.0039694499   0.9765182     -0.0025996909 
    391000   1.1056389      0.0049785126   1.0933541      0            
    392000   0.99868665     0.0033814466   0.98759013     0            
    393000   1.0448669      0.0042104002   1.0332573      0            
    394000   1.0760703      0.0043172782   1.0614919     -0.002622102  
    395000   1.0014961      0.0033658688   0.99036839     0            
    396000   0.93256074     0.0036428383   0.92219895     0            
    397000   0.9945612      0.0034736679   0.98351052     0            
    398000   0.97088406     0.0045675059   0.96009646     0            
    399000   0.91520949     0.0036312389   0.9050405      0            
    400000   1.0777668      0.0046220356   1.0657916      0            
    401000   1.0511115      0.0044348633   1.0394324      0            
    402000   0.94897466     0.0034599322   0.9384305      0            
    403000   1.0476004      0.0051571627   1.0365482      0.00058772836
    404000   0.97339749     0.0029641283   0.96258196     0            
    405000   1.0559963      0.0039129576   1.0438179     -0.00044504803
    406000   1.0162966      0.0046599331   1.0050045      0            
    407000   1.0088613      0.0039060325   0.99765176     0            
    408000   1.0186446      0.0041472393   1.0073264      0            
    409000   1.0641119      0.0030762465   1.0522885      0            
    410000   0.98220087     0.0039353078   0.97128752     0            
    411000   0.94234643     0.0041390084   0.93187592     0            
    412000   0.99208453     0.0046695723   0.98106136     0            
    413000   1.0394165      0.0045353411   1.0278675      0            
    414000   0.97719462     0.0039646708   0.9663369      0            
    415000   0.98663931     0.0036363892   0.97503387    -0.00064278453
    416000   1.0654336      0.0046522765   1.0531879     -0.0004075964 
    417000   0.94646621     0.0040667471   0.93158296    -0.0043669627 
    418000   1.0329269      0.0042244388   1.0201333     -0.0013166689 
    419000   0.91088825     0.0034354598   0.90076726     0            
    420000   0.98539631     0.0041694058   0.97395586    -0.00049160136
    421000   1.0754034      0.0042049618   1.0634545      0            
    422000   1.0133784      0.0035781602   1.0021187      0            
    423000   0.9729683      0.0039544102   0.96298848     0.00083094459
    424000   0.98977523     0.0043714374   0.97806692    -0.00071079989
    425000   1.030882       0.0040263712   1.0194277      0            
    426000   0.99844664     0.0039136056   0.98734954    -3.2478931e-06
    427000   0.93243326     0.0037647433   0.92143499    -0.00063790376
    428000   1.0416801      0.0050029808   1.0309856      0.00087970935
    429000   0.91744265     0.003137706    0.90728102     3.2170458e-05
    430000   0.99127407     0.0039249294   0.98025992     0            
    431000   0.96588954     0.004006446    0.95249685    -0.0026605866 
    432000   1.0409608      0.004692151    1.0278846     -0.0015100397 
    433000   0.88905693     0.0034329083   0.87816794    -0.0010105754 
    434000   0.9656153      0.0039238255   0.95488624     0            
    435000   1.0478034      0.0036940994   1.0361612      0            
    436000   0.98782198     0.0038365952   0.97684618     0            
    437000   1.0557304      0.0046385014   1.0440001      0            
    438000   0.92635727     0.0038101158   0.91606441     0            
    439000   1.0299616      0.0038904544   1.0190281      0.00051053528
    440000   1.0131594      0.0036825378   1.001902       0            
    441000   0.98568512     0.0047700966   0.97473306     0            
    442000   0.99144414     0.0044259445   0.9804281      0            
    443000   1.0602232      0.0038879286   1.0493551      0.00091211437
    444000   0.97189115     0.0051992612   0.96109236     0            
    445000   1.0077268      0.0048415473   0.99652987     0            
    446000   0.99667355     0.0040959375   0.9855994      0            
    447000   1.0813284      0.0045653149   1.0672861     -0.0020275992 
    448000   0.92859921     0.0038651075   0.91828082    -6.2370729e-07
    449000   0.89861578     0.0036940865   0.88615098    -0.0024801831 
    450000   0.99474504     0.0034072976   0.98108101    -0.0026113082 
    451000   0.92619448     0.0030072288   0.91590343     0            
    452000   1.0422069      0.0049501842   1.0306269      0            
    453000   1.0151383      0.0051103422   1.003859       0            
    454000   1.0190194      0.0044066249   1.007697       0            
    455000   0.97469977     0.0033420237   0.96386977     0            
    456000   0.97612829     0.0036223767   0.96528242     0            
    457000   1.1037089      0.0051573833   1.0914454      0            
    458000   1.0351929      0.0048577572   1.0236907      0            
    459000   0.98192739     0.0037214253   0.96880747    -0.0022096109 
    460000   0.95724754     0.0043903035   0.94663761     2.6151378e-05
    461000   1.0878098      0.004901629    1.0757231      0            
    462000   0.94550675     0.003484084    0.93500112     0            
    463000   0.96700348     0.0041463688   0.956259       0            
    464000   0.89089394     0.004737966    0.88099512     0            
    465000   0.99975694     0.004639628    0.98832483    -0.0003236961 
    466000   0.94092984     0.0034650361   0.93047506     0            
    467000   0.96950384     0.004111917    0.95873157     0            
    468000   1.0141739      0.0038697949   1.0029053      0            
    469000   1.0705669      0.0045008864   1.0586717      0            
    470000   0.97860155     0.0042396397   0.9677282      0            
    471000   0.96062463     0.004303324    0.94995102     0            
    472000   1.0471269      0.0043332329   1.0354922      0            
    473000   1.0659807      0.0044006738   1.0541365      0            
    474000   1.0541196      0.0039689583   1.0396974     -0.0027097249 
    475000   1.0240726      0.0045411926   1.0100483     -0.0026457596 
    476000   1.0087534      0.0044331509   0.99499876    -0.0025463122 
    477000   1.0655746      0.0044601914   1.0523845     -0.0013504709 
    478000   0.93352249     0.0026449707   0.91982326    -0.0033267602 
    479000   1.0040885      0.0048737332   0.99256216    -0.0003698162 
    480000   1.0146562      0.0037246358   1.0010291     -0.0023531452 
    481000   1.0327333      0.0036226365   1.0211713     -8.7148516e-05
    482000   1.1195817      0.0039897966   1.1060435     -0.001098349  
    483000   0.94670563     0.0043416547   0.93618668     0            
    484000   1.0092564      0.004341267    0.99804246     0            
    485000   1.0095189      0.0042998653   0.99830198     0            
    486000   0.98005116     0.0045211176   0.9691617      0            
    487000   0.9764994      0.0041049218   0.96564941     0            
    488000   0.96263797     0.0039335227   0.95194199     0            
    489000   0.98800202     0.0035310668   0.97702422     0            
    490000   1.0815974      0.0036646995   1.0695797      0            
    491000   0.98958145     0.0048523855   0.97879895     0.00021285154
    492000   0.99175699     0.0040568846   0.97998665    -0.00075082268
    493000   1.0114719      0.0034935528   0.99915652    -0.001076756  
    494000   1.0179827      0.0036869026   1.0066717      0            
    495000   0.94947148     0.0039365151   0.9389218      0            
    496000   0.94594987     0.0036879068   0.93543932     0            
    497000   1.0276282      0.0036229106   1.0153135     -0.00089659083
    498000   1.0067225      0.0046223917   0.99374234    -0.0017943744 
    499000   1.0501077      0.0042105377   1.0370904     -0.001349467  
    500000   0.9979662      0.0036931527   0.98687768     0            
    501000   1.061397       0.0050711825   1.0548798      0.0052761565 
    502000   1.0326095      0.0042670544   1.0211877      5.1669199e-05
    503000   0.96768153     0.003737382    0.95692952     0            
    504000   0.99456934     0.0034414173   0.98351857     0            
    505000   0.94520322     0.0033341209   0.93470096     0            
    506000   1.0085935      0.0035578462   0.99738695     0            
    507000   1.0306204      0.0045969242   1.0191691      0            
    508000   0.96904642     0.004138586    0.95827924     0            
    509000   1.0346647      0.0043272981   1.0231684      0            
    510000   1.0466486      0.004313317    1.0338023     -0.0012168162 
    511000   1.0011384      0.0034889772   0.98920968    -0.00080491154
    512000   1.0597104      0.0039372503   1.0479359      0            
    513000   1.0482424      0.0041926439   1.0365953      0            
    514000   1.0659214      0.0040115655   1.0523853     -0.001692496  
    515000   0.98935774     0.0044524566   0.97836488     0            
    516000   1.0176205      0.0034626398   1.0063136      0            
    517000   1.0276075      0.0042655091   1.0161897      0            
    518000   0.98316118     0.0047632564   0.97071285    -0.0015243232 
    519000   0.96277205     0.0034913584   0.94895207    -0.0031225108 
    520000   1.0672007      0.0045344469   1.055343       0            
    521000   0.93835918     0.0051119723   0.92792924    -3.7244333e-06
    522000   0.92765601     0.003642929    0.91734872     0            
    523000   1.0309418      0.0044797936   1.0194869      0            
    524000   1.0750254      0.0046508692   1.0576789     -0.0054018098 
    525000   0.97723028     0.0048007876   0.96551279    -0.00085937755
    526000   0.96916465     0.0044737865   0.9566689     -0.0017272479 
    527000   1.0545857      0.0047330933   1.0410437     -0.0018243192 
    528000   1.0107073      0.0048550237   0.99795225    -0.0015249251 
    529000   0.95309536     0.0038559515   0.94291201     0.00040660164
    530000   0.95968246     0.0042096808   0.94901932     0            
    531000   0.9962915      0.0049884931   0.9848793     -0.00034230027
    532000   0.97464887     0.0036331041   0.9618272     -0.0019922316 
    533000   1.0219875      0.0037139421   1.0077585     -0.0028735796 
    534000   0.91563603     0.0035126958   0.9054623      0            
    535000   1.0651812      0.0039190487   1.0533459      0            
    536000   0.98591594     0.0048864043   0.97546092     0.00049959912
    537000   1.0326757      0.0050893019   1.0212016      0            
    538000   1.0349458      0.0036384593   1.0218977     -0.0015487233 
    539000   0.9685232      0.003966075    0.95776183     0            
    540000   1.0218882      0.0041275256   1.0105339      0            
    541000   1.0463167      0.0042266169   1.0344673     -0.00022367472
    542000   1.0056288      0.0044445601   0.99445518     0            
    543000   1.0448637      0.0043016879   1.0332541      0            
    544000   1.0130182      0.0039670888   1.0017632      6.8708354e-07
    545000   0.99499494     0.0042401229   0.98393944     0            
    546000   0.96356161     0.0042966667   0.95111253    -0.0017428401 
    547000   1.0257295      0.00455963     1.0120541     -0.0022783881 
    548000   1.0667391      0.0051460455   1.0548808     -5.6741079e-06
    549000   1.0131974      0.0037563127   1.0019397      0            
    550000   1.1213952      0.0051734479   1.1078171     -0.0011181457 
    551000   0.95555785     0.0042566832   0.94463449    -0.00030604484
    552000   0.93195785     0.0030254757   0.92104517    -0.00055759922
    553000   1.0702831      0.0053623315   1.055788      -0.0026031492 
    554000   1.0041483      0.0035597346   0.99271613    -0.00027496944
    555000   1.0147319      0.0026051649   1.0034571      0            
    556000   1.0216089      0.0038872161   1.0102558     -1.9091024e-06
    557000   1.0839528      0.005277598    1.0692544     -0.0026544232 
    558000   0.96898094     0.0051976507   0.95791015    -0.00030433093
    559000   1.0137636      0.0047549465   1.0024996      0            
    560000   1.0392847      0.0044875416   1.0275269     -0.00021014605
    561000   1.0324221      0.0048020592   1.0213109      0.00036017485
    562000   0.99596541     0.0036316954   0.98489913     0            
    563000   1.0049547      0.0037544329   0.99378856     0            
    564000   1.0391543      0.0042881835   1.0261293     -0.0014788339 
    565000   0.98334123     0.0030766643   0.97214952    -0.00026569714
    566000   1.0382637      0.0034813953   1.0262108     -0.0005166343 
    567000   0.94213905     0.0045378652   0.93061323    -0.001057612  
    568000   0.98731411     0.0047101776   0.97486455    -0.0014794019 
    569000   0.98439242     0.0051851909   0.97345473     0            
    570000   1.0090122      0.0046504847   0.99757109    -0.0002298691 
    571000   1.0340434      0.0044066777   1.0225709      1.6861979e-05
    572000   1.0064096      0.0039569283   0.99709313     0.0018658425 
    573000   1.0432084      0.005125452    1.0316172      0            
    574000   1.0208764      0.0038904222   1.0095333      0            
    575000   1.0816275      0.0040227493   1.0696094      0            
    576000   0.9996735      0.0044423796   0.98591479    -0.0026512267 
    577000   1.0421213      0.0048090223   1.0305422      0            
    578000   0.96671937     0.0042815655   0.95597804     0            
    579000   0.93645489     0.0040347656   0.92604984     0            
    580000   0.8494145      0.0035672231   0.84000555     2.8991841e-05
    581000   0.99044878     0.0033233606   0.98018874     0.00074494773
    582000   1.0935108      0.0037542976   1.0787379     -0.0026227918 
    583000   1.0751897      0.0035525372   1.0611809     -0.0020621526 
    584000   0.96056609     0.0040168184   0.94952655    -0.00036657695
    585000   0.86889923     0.0035422874   0.85400992    -0.0052348726 
    586000   1.0293575      0.0043040176   1.0178789     -4.1326433e-05
    587000   1.0908781      0.0050110628   1.075916      -0.0028412209 
    588000   1.0172756      0.0045245789   1.0039296     -0.00204297   
    589000   1.0995991      0.0049319923   1.0852178     -0.0021635781 
    590000   1.018495       0.0040871331   1.0062516     -0.00092674702
    591000   1.0929558      0.00383268     1.0808118      0            
    592000   0.8555663      0.0031595909   0.84606        0            
    593000   1.0404012      0.0042835118   1.0286644     -0.00017671996
    594000   0.98137378     0.0049493709   0.97053598     6.6347966e-05
    595000   0.95231382     0.0029844621   0.94173256     0            
    596000   1.0305679      0.0028684817   1.0191171      0            
    597000   1.0496323      0.0043179241   1.0379697      0            
    598000   1.0190192      0.0044486507   1.0076968      0            
    599000   0.97581245     0.0049411109   0.96497009     0            
    600000   1.1073795      0.0043826217   1.0950753      0            
    601000   1.0080323      0.0038351847   0.99765294     0.0008209923 
    602000   1.0239274      0.0045360428   1.0125504      0            
    603000   0.94957553     0.0042619914   0.93902469     0            
    604000   0.91998584     0.0027759812   0.90976378     0            
    605000   0.96525646     0.0043204986   0.95466953     0.00013815068
    606000   1.013818       0.0040275079   1.0025533      0            
    607000   1.0012758      0.0046315363   0.99010742    -4.3083583e-05
    608000   1.039031       0.0042151465   1.0274863      0            
    609000   0.96757893     0.0022865191   0.95431594    -0.0025121033 
    610000   0.98459566     0.00330065     0.97365571     0            
    611000   0.94270516     0.003350488    0.93223065     0            
    612000   1.0062445      0.0036032747   0.99506399     0            
    613000   1.0095803      0.0040844878   0.99836278     0            
    614000   1.0241844      0.0033058943   1.0096803     -0.0031242701 
    615000   1.0422668      0.0042464962   1.0318408      0.0011546436 
    616000   1.055232       0.0044905213   1.0435072      0            
    617000   0.92151213     0.0043210162   0.90992015    -0.0013529585 
    618000   0.99841463     0.0047615047   0.98675379    -0.0005673428 
    619000   1.0718922      0.0037521524   1.0599823      0            
    620000   0.96907121     0.003490187    0.96243316     0.0041294047 
    621000   0.95596987     0.0053445572   0.94534798     0            
    622000   0.90433591     0.0038483146   0.89428774     0            
    623000   0.91867455     0.0026209548   0.90727363    -0.0011934206 
    624000   1.0224543      0.0037189628   1.008893      -0.0022006799 
    625000   1.0113622      0.0042009335   0.99817987    -0.0019449459 
    626000   1.0149454      0.0052069928   1.0012583     -0.0024099235 
    627000   1.0419963      0.0046642878   1.0281288     -0.0022898401 
    628000   1.0278476      0.0045516503   1.0164224     -4.6086937e-06
    629000   0.96420416     0.0036319569   0.95349078     0            
    630000   1.0441043      0.004573832    1.0325031      0            
    631000   0.9619983      0.0046904797   0.95132446     1.5034572e-05
    632000   1.0072558      0.0039040053   0.99606408     0            
    633000   1.0315432      0.0035401797   1.0180717     -0.0020099437 
    634000   1.049254       0.0045060369   1.0375956      0            
    635000   1.0206508      0.0039256083   1.0093102      0            
    636000   0.98092381     0.0048277938   0.96922285    -0.00080180992
    637000   1.0280923      0.0043933124   1.0158527     -0.00081635891
    638000   1.022885       0.0044012358   1.0068107     -0.0047089039 
    639000   1.0025646      0.0042316554   0.98966575    -0.0017591947 
    640000   0.9471168      0.0038703269   0.93659328     0            
    641000   1.0653713      0.0033582361   1.0530253     -0.00050856799
    642000   0.90371241     0.0030336919   0.89234785    -0.0013233036 
    643000   1.0010269      0.0039602895   0.98936979    -0.00053462706
    644000   0.96612244     0.0035140228   0.95538775     0            
    645000   0.9552846      0.0040943608   0.94467032     0            
    646000   0.97846388     0.0045031977   0.96759205     0            
    647000   1.0210859      0.0041720305   1.0097405      0            
    648000   1.0356285      0.0047685542   1.0241215      0            
    649000   0.98912852     0.0043456529   0.97767799    -0.00046020589
    650000   1.018388       0.0041053973   1.0082051      0.0011324352 
    651000   0.92474841     0.0032062173   0.91214564    -0.0023277881 
    652000   1.0780546      0.0034387531   1.0660761     -8.501811e-08 
    653000   1.0553626      0.0033532457   1.0436364      0            
    654000   1.0547832      0.0038638269   1.0392306     -0.0038327444 
    655000   1.0097667      0.004167245    0.99543394    -0.0031131754 
    656000   1.0117248      0.0045810318   0.99792623    -0.0025571778 
    657000   1.0089254      0.0040791014   0.99724464    -0.00047049189
    658000   0.96495473     0.0034606312   0.95247363    -0.0017593818 
    659000   1.1090131      0.0039040472   1.0971592      0.00046848301
    660000   1.0605912      0.0044478553   1.0489562      0.00014939335
    661000   1.0959399      0.0051438548   1.0837628      0            
    662000   1.0323643      0.0039760473   1.0208936      0            
    663000   1.0648966      0.0045311507   1.0530644      0            
    664000   0.88578052     0.0032353268   0.87466935    -0.0012691568 
    665000   0.99858699     0.0045663412   0.98749158     0            
    666000   0.98741135     0.0038628877   0.97644012     0            
    667000   0.98128517     0.0039968054   0.970382       0            
    668000   0.97697204     0.0040409565   0.9661168      0            
    669000   1.1157937      0.0043595918   1.103396       0            
    670000   1.0548774      0.0039937402   1.0431566      0            
    671000   0.99395788     0.0036577709   0.9829139      0            
    672000   0.96320186     0.0047286941   0.95249962     0            
    673000   0.92600374     0.0037098419   0.91492071    -0.00079409992
    674000   1.0221891      0.0038723846   1.0094253     -0.0014061246 
    675000   1.0537906      0.0049802512   1.0420775     -4.3332769e-06
    676000   1.023491       0.0044577898   1.0138594      0.0017405073 
    677000   0.93317837     0.0043086247   0.91883308    -0.0039766417 
    678000   1.0023813      0.0039935218   0.99038582    -0.0008578565 
    679000   0.9752279      0.0029433254   0.96393129    -0.00046074077
    680000   0.99446571     0.0050422376   0.98341609     0            
    681000   0.99659421     0.0042942942   0.98553971     1.8767007e-05
    682000   0.94575507     0.0031207005   0.93524668     0            
    683000   1.0291823      0.004779741    1.0182568      0.00050988299
    684000   0.93393463     0.002891696    0.92355758     0            
    685000   1.0416107      0.0047547139   1.0300372      0            
    686000   1.0645191      0.0047202344   1.0526902     -8.9900494e-07
    687000   1.0182336      0.0037120092   1.0069199      0            
    688000   1.0117042      0.0042373485   1.000463       0            
    689000   1.0579041      0.0050715214   1.0461496      0            
    690000   1.027946       0.0045574829   1.0219042      0.0053797731 
    691000   0.96242335     0.0041780541   0.95064061    -0.0010891492 
    692000   0.94887726     0.0039099389   0.93833418     0            
    693000   0.90442284     0.0029694117   0.89209644    -0.0022772529 
    694000   1.0020154      0.0042315343   0.99088187     0            
    695000   0.97715103     0.0045630356   0.9662938      0            
    696000   1.0665959      0.0046908422   1.0530723     -0.0016725608 
    697000   1.0312136      0.0046953155   1.0197557      0            
    698000   0.96471192     0.0037957349   0.95399289     0            
    699000   1.0945136      0.0038728244   1.0805428     -0.0018095215 
    700000   0.98754753     0.0043558542   0.97598647    -0.0005883153 
    701000   1.0192298      0.004064591    1.007905       0            
    702000   0.99637848     0.0044689527   0.98287416    -0.0024334557 
    703000   1.0330966      0.0030566701   1.0202912     -0.0013266023 
    704000   1.0125129      0.00415835     1.0012627      0            
    705000   0.98294917     0.0040404226   0.97114402    -0.00088349472
    706000   1.015152       0.0040230025   1.0040022      0.00012965988
    707000   1.077577       0.003884927    1.0669436      0.0013396545 
    708000   1.0235085      0.0043094836   1.0121362      0            
    709000   1.0770289      0.0040012928   1.0650619      0            
    710000   1.000956       0.004734922    0.98782138    -0.0020128854 
    711000   0.9418507      0.0041265231   0.9293704     -0.0020152933 
    712000   0.97083634     0.0039418542   0.95996592    -8.3345068e-05
    713000   1.0423452      0.0044174936   1.0307636      0            
    714000   1.0069796      0.0043659261   0.99457246    -0.001218496  
    715000   0.98897714     0.0040916261   0.97798851     0            
    716000   0.9875032      0.0041244977   0.97653635     5.4010092e-06
    717000   0.93182199     0.0048229004   0.92146842     0            
    718000   0.95817721     0.0035917053   0.94753079     0            
    719000   0.96586162     0.0037898109   0.95512982     0            
    720000   1.0688633      0.0051364645   1.056987       0            
    721000   1.109217       0.0040855193   1.0968923      0            
    722000   0.89847716     0.0028363714   0.88849082    -3.2613203e-06
    723000   1.0157823      0.0040558681   1.0044958      0            
    724000   0.93961147     0.0037715803   0.92917134     0            
    725000   0.97384104     0.004318055    0.96483954     0.0018189553 
    726000   1.0007816      0.0040446647   0.98930158    -0.00036019371
    727000   1.0109619      0.0037003713   1.0026227      0.0028936779 
    728000   1.0119223      0.0039115414   1.0006787      0            
    729000   1.0312629      0.0033886583   1.0198045      0            
    730000   1.0469491      0.0053271749   1.0353163      0            
    731000   1.0243153      0.0048790686   1.012934       0            
    732000   0.9041248      0.0031796338   0.89407897     0            
    733000   1.0122105      0.0041068179   1.0009637      0            
    734000   0.94874909     0.0041567229   0.93862148     0.00041404607
    735000   1.0075184      0.0046405507   0.9963238      0            
    736000   1.1028471      0.0044683089   1.0905932      0            
    737000   1.0079393      0.0041082353   0.99674407     4.0705132e-06
    738000   0.93547173     0.0042314735   0.9250776      0            
    739000   1.0723845      0.0036640309   1.0604691      0            
    740000   0.97404386     0.004546837    0.96322115     0            
    741000   0.97543477     0.0040072366   0.96478363     0.0001870246 
    742000   0.9781536      0.0043716063   0.96537287    -0.0019123508 
    743000   1.0075478      0.0038520733   0.99611615    -0.00023670398
    744000   0.91695109     0.0042534383   0.90743026     0.00066751307
    745000   0.97425496     0.0034634388   0.96220715    -0.0012227595 
    746000   1.0298558      0.0043039779   1.013995      -0.0044179575 
    747000   0.93170178     0.0043087316   0.92128639    -6.3152388e-05
    748000   0.8566134      0.0029255474   0.84561012    -0.0014853454 
    749000   1.0392946      0.0038766141   1.0251396     -0.0026072175 
    750000   1.019667       0.0032190289   1.0067957     -0.0015416673 
    751000   0.98894163     0.004391864    0.97623901    -0.0017143823 
    752000   1.0652467      0.0036209782   1.0530761     -0.00033455588
    753000   1.0389131      0.0036233675   1.0271635     -0.00020608541
    754000   0.97873459     0.0047473582   0.96785976     0            
    755000   0.96579501     0.0046221423   0.95506396     0            
    756000   0.9946762      0.0038254022   0.98365155     2.7301339e-05
    757000   1.061891       0.004339526    1.0506355      0.00054324901
    758000   0.94102192     0.0025338342   0.93056612     0            
    759000   0.99193864     0.0036971599   0.9809171      0            
    760000   1.0313813      0.003997413    1.0199215      0            
    761000   1.0232403      0.0042918596   1.0118709      0            
    762000   0.98148727     0.0049703481   0.97058186     0            
    763000   1.0539323      0.0044889005   1.0417085     -0.00051348745
    764000   0.94564504     0.0045233226   0.93514698     9.1062934e-06
    765000   0.98232313     0.0035075522   0.96884516    -0.0025632724 
    766000   1.0276692      0.0047660362   1.0149082     -0.0013424723 
    767000   0.95127392     0.0043135842   0.94070421     0            
    768000   1.049927       0.0041248756   1.0382611      0            
    769000   1.0425834      0.0047260827   1.0309992      0            
    770000   0.89416732     0.0037398414   0.88186635    -0.0023657845 
    771000   1.0016538      0.0044003843   0.9905243      0            
    772000   0.97979974     0.0044925935   0.96973661     0.00082353082
    773000   1.0657468      0.003772058    1.0529125     -0.00099265221
    774000   1.0256429      0.0037921304   1.0142468      0            
    775000   1.1466046      0.0043399655   1.1338646      0            
    776000   0.95555717     0.0036575303   0.94493986     0            
    777000   0.95998245     0.0034995446   0.94932593     9.9511963e-06
    778000   0.9769204      0.0049598621   0.96968688     0.0036211541 
    779000   0.99064953     0.0039537461   0.97964231     0            
    780000   1.0023691      0.0046986242   0.9912317      0            
    781000   0.95909711     0.0036671826   0.94844048     0            
    782000   1.0748531      0.0041511703   1.0629103      0            
    783000   0.91968823     0.0045595599   0.90946947     0            
    784000   0.95849773     0.0050087838   0.94784776     0            
    785000   0.98591969     0.0037458228   0.97496502     0            
    786000   0.98023567     0.0041129764   0.96934416     0            
    787000   0.99727856     0.004933191    0.98619769     0            
    788000   1.0594409      0.0042251529   1.0476693      0            
    789000   1.0397005      0.0041506244   1.0281483      0            
    790000   1.1428353      0.0044361709   1.1301371      0            
    791000   1.0400632      0.0044946998   1.028507       0            
    792000   1.0450992      0.0050691918   1.033487       0            
    793000   0.94492452     0.0035914139   0.93442536     0            
    794000   0.97398922     0.0042619066   0.96316711     0            
    795000   0.95530677     0.0044642036   0.94469225     0            
    796000   1.0792532      0.0045458194   1.0672615      0            
    797000   0.99409753     0.0044628362   0.983052       0            
    798000   1.0647609      0.004929484    1.0529302      0            
    799000   0.98922346     0.0043463093   0.97823209     0            
    800000   1.0136561      0.005352475    1.0023933      0            
    801000   0.99088663     0.0044138495   0.97767388    -0.0022028935 
    802000   1.0444483      0.0047090406   1.0308643     -0.0019790038 
    803000   0.92212043     0.0035332073   0.91169448    -0.00018016007
    804000   0.99088613     0.0036439497   0.97987628     0            
    805000   1.0953495      0.0044336949   1.0831789      0            
    806000   1.0226072      0.0042196621   1.0112449      0            
    807000   1.0515787      0.0037475962   1.0398945      0            
    808000   1.0810288      0.004135179    1.0690174      0            
    809000   1.0994571      0.0042606616   1.0862619     -0.00097904063
    810000   1.0111714      0.0045193018   1.0029878      0.0030516861 
    811000   0.95802616     0.0044485768   0.94738142     0            
    812000   0.98232677     0.0042508956   0.96875472    -0.00265731   
    813000   1.0427238      0.0044898461   1.0279381     -0.0031999155 
    814000   0.95626022     0.0041366278   0.94551785    -0.00011726039
    815000   1.0611538      0.0049459036   1.0487265     -0.00063674403
    816000   1.0815224      0.003558129    1.0695447      3.916715e-05 
    817000   0.87872163     0.0035456009   0.86895806     0            
    818000   0.93391073     0.0039136388   0.92120265    -0.0023312922 
    819000   1.032564       0.0048322009   1.0202679     -0.00082318005
    820000   1.0411324      0.0049079079   1.0295642      0            
    821000   0.96338328     0.0037946398   0.95267902     0            
    822000   1.0090688      0.0030423578   0.99703045    -0.00082650047
    823000   1.04982        0.0043427691   1.0363625     -0.0017928566 
    824000   0.89387146     0.0033551219   0.88207978    -0.0018597719 
    825000   1.0569345      0.0043005557   1.0425137     -0.0026771133 
    826000   1.0316995      0.0039890475   1.0202362      0            
    827000   0.91575548     0.0038503217   0.90380228    -0.0017781395 
    828000   1.0038376      0.004851226    0.99268388     0            
    829000   1.0326992      0.0041580458   1.0191011     -0.0021236066 
    830000   0.96220042     0.0047278327   0.95339113     0.0018818239 
    831000   0.92131804     0.0042285306   0.91108118     0            
    832000   0.95450105     0.0034013721   0.94185863    -0.0020368566 
    833000   1.0465748      0.0043696011   1.0349462      0            
    834000   1.0532321      0.0040074903   1.0411242     -0.00040530538
    835000   0.95189532     0.0037304659   0.9413187      0            
    836000   0.98874998     0.0037052601   0.97776387     0            
    837000   1.0138034      0.0039129825   1.0025389      0            
    838000   1.0174306      0.0047359962   1.0061259      0            
    839000   1.045581       0.0043918025   1.0339634      0            
    840000   1.0162692      0.0043449418   1.0049773      0            
    841000   0.98890582     0.0037813134   0.97791798     0            
    842000   1.0279173      0.0045195149   1.016496       0            
    843000   1.0825402      0.0046616341   1.0709248      0.00041284703
    844000   0.97047127     0.0044928865   0.95968825     0            
    845000   0.956114       0.0032130739   0.94549052     0            
    846000   1.0400119      0.0040748658   1.0284986      4.2416337e-05
    847000   0.96037723     0.0045011524   0.95603802     0.0063316478 
    848000   1.0011151      0.0038811433   0.98999157     0            
    849000   0.99352409     0.0025426106   0.98258207     9.7137608e-05
    850000   1.0359818      0.004367824    1.0244709      0            
    851000   0.967696       0.0033541189   0.95694382     0            
    852000   0.93476688     0.0034789689   0.92438058     0            
    853000   0.96577409     0.0045547078   0.95507891     3.5634418e-05
    854000   0.99549558     0.003726481    0.98443452     0            
    855000   0.83795856     0.0032355131   0.82864791     0            
    856000   1.0430298      0.004196033    1.0325938      0.0011532329 
    857000   1.001186       0.0036759547   0.99006172     0            
    858000   1.0065604      0.0043007374   0.9953764      0            
    859000   1.0201761      0.0032128615   1.0088408      0            
    860000   0.98837188     0.0039089733   0.97730439    -8.5582143e-05
    861000   1.000669       0.0045890408   0.98955048     0            
    862000   1.0261132      0.0049045358   1.0147119      0            
    863000   1.126509       0.0049452079   1.1139923      0            
    864000   1.0095114      0.004614754    0.9965337     -0.001760896  
    865000   1.0160331      0.0038550101   1.0028146     -0.0019292286 
    866000   1.0196825      0.0051604722   1.0083527      0            
    867000   0.9706003      0.0033470798   0.95981585     0            
    868000   0.98099536     0.0035818968   0.97010244     7.0367169e-06
    869000   0.9853146      0.0037912205   0.97436666     0            
    870000   1.0051366      0.0045243988   0.99396838     0            
    871000   1.0579224      0.0037004726   1.0461677      0            
    872000   0.93502685     0.0040335781   0.92463766     0            
    873000   1.0335377      0.0036127258   1.0220539      0            
    874000   1.0037962      0.0050569797   0.99166929    -0.00097361359
    875000   0.9389653      0.0043455158   0.92853235     0            
    876000   0.97672756     0.0039883115   0.96609748     0.00022245057
    877000   1.05404        0.0037460878   1.0423284      0            
    878000   1.0004476      0.0039188602   0.98698672    -0.0023448105 
    879000   0.98253397     0.0035982814   0.97206544     0.00044851266
    880000   0.97398774     0.0045079436   0.96269414    -0.00047151468
    881000   0.95401634     0.0037459562   0.94307547    -0.000340693  
    882000   0.98542136     0.0044125201   0.97500472     0.00053248562
    883000   1.0111745      0.0028776881   0.99993926     0            
    884000   1.0346957      0.0041588446   1.0305367      0.0073376135 
    885000   1.0580589      0.0049881689   1.0463027      0            
    886000   0.97282765     0.0040797172   0.96201845     0            
    887000   1.0992874      0.0036408059   1.085446      -0.0016271559 
    888000   0.96356703     0.0041869776   0.95286073     0            
    889000   1.0927055      0.0047729214   1.0805644      0            
    890000   0.90812701     0.0046266977   0.89803671     0            
    891000   0.95099926     0.0049255969   0.9404326      0            
    892000   1.0426798      0.0034765436   1.0310945      0            
    893000   0.98103293     0.0043214981   0.97013256     0            
    894000   0.98499118     0.0044431112   0.97404684     0            
    895000   0.88420361     0.0037309397   0.87437913     0            
    896000   1.0808631      0.0042440987   1.0688955      4.1989548e-05
    897000   0.97065578     0.0041923875   0.96231621     0.0024454928 
    898000   1.0124526      0.0045158081   1.0012031      0            
    899000   0.84050226     0.0028444259   0.83116335     0            
    900000   1.016442       0.0047787547   1.0051482      0            
    901000   0.98992668     0.0037593622   0.97892749     0            
    902000   0.93315096     0.0041022768   0.92278262     0            
    903000   1.0079557      0.0041138319   0.99495407    -0.0018020937 
    904000   1.0010727      0.0048721456   0.98921366    -0.00073603853
    905000   0.92028755     0.0025973702   0.91006213     0            
    906000   1.0242611      0.0042087103   1.0112983     -0.0015821365 
    907000   1.0030867      0.0042737427   0.99194129     0            
    908000   1.0541485      0.0034664866   1.0416387     -0.00079705263
    909000   0.98292187     0.0042366772   0.97200051     0            
    910000   1.0191798      0.0045064597   1.0078556      0            
    911000   1.075144       0.0046245809   1.064834       0.00163605   
    912000   1.1251359      0.0049912418   1.1126344      0            
    913000   1.0355977      0.0036666167   1.024091       0            
    914000   1.0800812      0.0046456664   1.0709426      0.0028622581 
    915000   1.0059218      0.003485742    0.99474489     0            
    916000   1.0275053      0.0043573398   1.0195625      0.003473923  
    917000   1.0152351      0.0046321416   1.00178       -0.0021747338 
    918000   0.90153582     0.0036655537   0.8886469     -0.002871856  
    919000   0.97034301     0.0051304476   0.95862126    -0.00094015921
    920000   0.99276216     0.0032930442   0.97715771    -0.00457376   
    921000   0.99326829     0.0038668295   0.98048376    -0.0017482135 
    922000   0.96695879     0.0048097591   0.95621481     0            
    923000   0.96905754     0.003635897    0.95829134     1.1049411e-06
    924000   0.95418587     0.0041563676   0.94358381     0            
    925000   0.9434483      0.0043112421   0.93296554     0            
    926000   0.95792405     0.0047951939   0.94949353     0.0022130783 
    927000   0.98727352     0.0037700526   0.97630381     0            
    928000   0.98722473     0.0038447982   0.97625254    -3.0304395e-06
    929000   1.0671179      0.0046173115   1.0556494      0.00038838513
    930000   0.96975043     0.0036406677   0.95897543     0            
    931000   0.97711893     0.0029953215   0.96626206     0            
    932000   1.1042461      0.0045309792   1.0919767      0            
    933000   1.0635789      0.0045409684   1.0517614      0            
    934000   1.008841       0.0034069507   0.99763168     0            
    935000   0.9882218      0.0045285104   0.97724156     0            
    936000   1.0552785      0.0040718331   1.0435532      0            
    937000   1.0571056      0.0046711037   1.04536        0            
    938000   1.0379258      0.0046671209   1.0261392     -0.00025414713
    939000   1.0267233      0.0037997626   1.0133525     -0.0019628139 
    940000   0.96523169     0.0043422801   0.95450689     0            
    941000   0.98125253     0.0048314337   0.97034972     0            
    942000   1.0653158      0.0036765975   1.0560625      0.0025835929 
    943000   0.86811877     0.0041516415   0.8584685     -4.5076951e-06
    944000   1.0120121      0.0044116191   0.99822754    -0.0025399345 
    945000   1.0180432      0.0037431625   1.0042569     -0.0024747085 
    946000   1.0967307      0.0045137816   1.0825263     -0.0020184999 
    947000   0.96081401     0.0039239637   0.9491218     -0.0010165048 
    948000   1.050264       0.0050903329   1.0379257     -0.00066863772
    949000   1.043032       0.0034948448   1.031201      -0.00024178181
    950000   1.0571112      0.0053111302   1.0451136     -0.00025194723
    951000   0.95298314     0.00373359     0.94239444     0            
    952000   1.0624218      0.004517563    1.0506171      0            
    953000   1.0188486      0.0037179721   1.0065162     -0.0010118809 
    954000   1.0431227      0.0050653076   1.0296452     -0.0018871884 
    955000   1.0228041      0.0037449467   1.0089345     -0.0025050833 
    956000   0.93378901     0.0042518356   0.92149912    -0.0019144553 
    957000   0.98401012     0.0025186572   0.97370853     0.00063185284
    958000   0.96853435     0.0044071824   0.95777286     0            
    959000   1.0232432      0.0038263133   1.0099665     -0.0019073211 
    960000   1.0085496      0.004362763    0.99734345     0            
    961000   1.0340099      0.0028474686   1.020626      -0.0018948331 
    962000   1.0098172      0.0033785816   0.99748409    -0.00111295   
    963000   1.0077989      0.003939512    0.99536991    -0.0012312347 
    964000   1.0358299      0.0030026877   1.0243207      0            
    965000   1.0335592      0.0033837638   1.0220752      0            
    966000   1.0595371      0.0036150776   1.0452572     -0.0025072192 
    967000   1.019948       0.0040580882   1.0086153      0            
    968000   0.97288571     0.0039119903   0.96151899    -0.00055687975
    969000   1.0382683      0.0041043599   1.026732       0            
    970000   1.1419883      0.0049502381   1.1292995      0            
    971000   1.0599031      0.0045608365   1.0481264      0            
    972000   0.9504891      0.0045900219   0.94179942     0.0018713063 
    973000   1.0970133      0.004402052    1.0848243      0            
    974000   1.0266003      0.0041146623   1.0151936      0            
    975000   0.98253016     0.0033723753   0.97156129    -5.1868472e-05
    976000   1.0476982      0.0037243101   1.0360571      0            
    977000   0.95774918     0.0036533939   0.94710752     0            
    978000   0.95842933     0.0036111923   0.94778012     0            
    979000   0.95385192     0.0037940495   0.94146758    -0.0017859883 
    980000   0.97323609     0.0037227774   0.96128109    -0.0011412599 
    981000   0.86292933     0.0035114301   0.85334122     0            
    982000   1.0775927      0.004318322    1.0656195      0            
    983000   1.0026492      0.0037231088   0.99150862     0            
    984000   0.99742119     0.0036467745   0.98633873     0            
    985000   1.0618034      0.0045500327   1.0500056      0            
    986000   1.0541526      0.0040545279   1.0460552      0.0036153955 
    987000   1.0210252      0.0040056373   1.0123086      0.0026281209 
    988000   0.9941789      0.0041048392   0.98306122    -7.1251825e-05
    989000   0.99431751     0.0031283227   0.98312168    -0.00014785993
    990000   1.0233186      0.0047537964   1.0091923     -0.0027560639 
    991000   0.88478975     0.0041606675   0.87495876     0            
    992000   0.97505697     0.0037869935   0.96432991     0.00010690466
    993000   1.0254892      0.0037495031   1.0114685     -0.0026263695 
    994000   1.0174043      0.0041311378   1.0060998      0            
    995000   1.0411398      0.0040737989   1.0287522     -0.00081945832
    996000   1.0270078      0.0036749556   1.0155966      0            
    997000   1.0299172      0.0045116485   1.0184737      0            
    998000   1.0391972      0.0040893749   1.0281822      0.0005316117 
    999000   1.0149091      0.0040165388   1.0060252      0.0023928529 
   1000000   1.0164537      0.0032167359   1.0051597      0            
Loop time of 16.7911 on 1 procs for 1000000 steps with 405 atoms

Performance: 51455850.303 tau/day, 59555.382 timesteps/s
99.2% CPU use with 1 MPI tasks x no OpenMP threads

MPI task timing breakdown:
Section |  min time  |  avg time  |  max time  |%varavg| %total
---------------------------------------------------------------
Pair    | 0.77989    | 0.77989    | 0.77989    |   0.0 |  4.64
Bond    | 0.042164   | 0.042164   | 0.042164   |   0.0 |  0.25
Neigh   | 3.1546     | 3.1546     | 3.1546     |   0.0 | 18.79
Comm    | 0.84641    | 0.84641    | 0.84641    |   0.0 |  5.04
Output  | 0.31306    | 0.31306    | 0.31306    |   0.0 |  1.86
Modify  | 10.325     | 10.325     | 10.325     |   0.0 | 61.49
Other   |            | 1.33       |            |       |  7.92

Nlocal:            405 ave         405 max         405 min
Histogram: 1 0 0 0 0 0 0 0 0 0
Nghost:             57 ave          57 max          57 min
Histogram: 1 0 0 0 0 0 0 0 0 0
Neighs:              0 ave           0 max           0 min
Histogram: 1 0 0 0 0 0 0 0 0 0

Total # of neighbors = 0
Ave neighs/atom = 0
Ave special neighs/atom = 0
Neighbor list builds = 212564
Dangerous builds = 0
Total wall time: 0:00:16
