fix fLANG all langevin 1.0 1.0 1.0 100
fix NVE all nve 1.0 1.0 1.0

    ##======================================##
    ## Output
    ##======================================##

thermo 1000
thermo_style custom step temp press etotal epair
thermo_modify flush yes
timestep 0.01

    ##======================================##
    ## Equilibration before output
    ##======================================##


    ##======================================##
    ## Run with output
    ##======================================##

fix enforce_2d all enforce2d
dump 2 all custom 1000 Results_eps_attr5_eps_rep0_eps_rep_weak0_range2_attr_with_repFalse_n_synapsin300_n_vesicles0/Movie_2d_eps_attr5_eps_rep0_eps_rep_weak0_range2_attr_with_repFalse_n_synapsin300_n_vesicles0.xyz id type mol x y z
run 1000000
Generated 0 of 1 mixed pair_coeff terms from geometric mixing rule
Neighbor list info ...
  update every 1 steps, delay 1 steps, check yes
  max neighbors/atom: 2000, page size: 100000
  master list distance cutoff = 3.3
  ghost atom cutoff = 3.3
  binsize = 1.65, bins = 190 190 1
  1 neighbor lists, perpetual/occasional/extra = 1 0 0
  (1) pair cosine/squared, perpetual
      attributes: half, newton on
      pair build: half/bin/newton
      stencil: half/bin/2d
      bin: standard
Per MPI rank memory allocation (min/avg/max) = 7.419 | 7.419 | 7.419 Mbytes
   Step          Temp          Press          TotEng         E_pair    
         0   1              0.00613376     0.99833333     0            
      1000   1.1051194      0.0065123823   0.98362336    -0.11965419   
      2000   1.0954014      0.0061446335   0.69642404    -0.3971517    
      3000   1.0300198      0.0053694246   0.38033108    -0.64797205   
      4000   1.0791558      0.0051410614   0.084392907   -0.99296425   
      5000   1.0679266      0.0048895266  -0.075744278   -1.141891     
      6000   0.9741882      0.0041429167  -0.35705545    -1.32962      
      7000   1.0138923      0.0041782546  -0.45684178    -1.4690442    
      8000   0.94583063     0.0036626784  -0.73451066    -1.6787649    
      9000   1.0117104      0.0036448408  -0.88418117    -1.8942054    
     10000   0.97487222     0.0035007938  -1.0968605     -2.0701079    
     11000   1.0358022      0.0038087561  -1.3897652     -2.423841     
     12000   1.0116634      0.0033870641  -1.5250558     -2.5350331    
     13000   1.0279144      0.003639714   -1.6484622     -2.6746634    
     14000   0.96783223     0.0033520993  -1.9179767     -2.8841958    
     15000   1.0309461      0.0028728666  -2.0259887     -3.0552165    
     16000   0.97473318     0.0029604435  -2.2662415     -3.2393501    
     17000   1.0447282      0.0030442741  -2.2560277     -3.2990146    
     18000   0.94881384     0.0028041116  -2.6146197     -3.5618522    
     19000   0.98164026     0.0027371987  -2.5120199     -3.4920241    
     20000   1.0123814      0.0029220442  -2.7580896     -3.7687837    
     21000   1.0569026      0.0032175946  -2.8105474     -3.8656884    
     22000   0.98189056     0.0025300658  -2.9366112     -3.9168653    
     23000   1.0152415      0.0027950176  -3.0952867     -4.1088361    
     24000   1.065761       0.0027586067  -3.2898703     -4.353855     
     25000   0.97894111     0.0026308319  -3.5636561     -4.5409657    
     26000   1.066123       0.0029565022  -3.625876      -4.6902221    
     27000   0.94393807     0.0023221356  -3.8577212     -4.800086     
     28000   0.94706647     0.0023516345  -3.9020962     -4.8475842    
     29000   1.0469967      0.0028460315  -3.8760828     -4.9213345    
     30000   1.010743       0.0023656834  -3.9733183     -4.9823768    
     31000   1.0467188      0.0029041955  -4.1051226     -5.1500969    
     32000   0.99428662     0.0023620426  -4.2187902     -5.2114197    
     33000   0.98507796     0.0023036924  -4.2781812     -5.2616174    
     34000   0.99824207     0.0022771395  -4.4968761     -5.4934544    
     35000   1.0800547      0.002703371   -4.5759604     -5.654215     
     36000   0.98997642     0.0023632209  -4.7074818     -5.6958082    
     37000   1.0271145      0.0018964932  -4.7817685     -5.8071711    
     38000   0.96085753     0.001501393   -5.1443809     -6.103637     
     39000   0.97224882     0.0020190359  -5.2874635     -6.2580919    
     40000   0.97823312     0.0018233069  -5.3607548     -6.3373575    
     41000   0.98481376     0.0012372512  -5.3700329     -6.3532053    
     42000   0.95944569     0.0014326586  -5.6562491     -6.6140958    
     43000   1.1452385      0.0028519343  -5.8113617     -6.9546915    
     44000   1.0291984      0.0019657214  -5.9732851     -7.0007682    
     45000   0.95247487     0.0012952131  -6.0955398     -7.0464272    
     46000   1.013138       0.0017229882  -6.0724402     -7.0838896    
     47000   1.073473       0.0026434625  -6.4424907     -7.5141747    
     48000   1.0220213      0.0023087191  -6.5414179     -7.5617358    
     49000   1.0748156      0.0022753984  -6.6858492     -7.7588734    
     50000   0.99988041     0.0011921718  -6.8038058     -7.8020198    
     51000   1.0164024      0.0020982943  -6.8865844     -7.9012929    
     52000   1.0356969      0.0019685567  -6.9113476     -7.9453183    
     53000   1.0125778      0.00181246    -7.0050081     -8.0158983    
     54000   0.98053917     0.0010098438  -7.2305002     -8.2094051    
     55000   1.061077       0.0020425697  -7.4950077     -8.5543162    
     56000   0.96494396     0.0013709093  -7.6492844     -8.6126202    
     57000   1.0314144      0.0018196372  -7.5651305     -8.5948259    
     58000   0.97003454     0.0016758002  -7.6625158     -8.6309336    
     59000   1.0312291      0.0017622245  -7.6077613     -8.6372717    
     60000   1.0308519      0.0018491664  -7.7119146     -8.7410485    
     61000   0.97443938     0.0016454317  -7.9019508     -8.8747661    
     62000   1.0247864      0.0017382321  -7.8584189     -8.8814973    
     63000   0.98066534     0.0015691115  -7.9484763     -8.9275072    
     64000   0.92890201     0.0010324966  -8.0397366     -8.9670904    
     65000   0.98048623     0.001166632   -7.9822794     -8.9611315    
     66000   1.0811036      0.0023353053  -8.169548      -9.2488498    
     67000   0.98988695     0.001380555   -8.2364459     -9.224683     
     68000   0.99304589     0.0016898954  -8.3674757     -9.3588665    
     69000   1.02897        0.0013424602  -8.4625612     -9.4898162    
     70000   1.0460236      0.0021004751  -8.5227927     -9.567073     
     71000   1.0111224      0.00086353556 -8.4754475     -9.4848846    
     72000   0.9894205      0.0015930447  -8.6410454     -9.6288169    
     73000   1.0565256      0.0014889898  -8.5148473     -9.5696121    
     74000   1.0363406      0.0016017051  -8.5614353     -9.5960486    
     75000   0.99817572     0.0014690144  -8.7432685     -9.7397806    
     76000   1.0000318      0.0011949629  -8.8787065     -9.8770716    
     77000   1.0796492      0.0017892308  -8.8429658     -9.9208157    
     78000   1.0384915      0.0018527785  -8.9053059     -9.9420666    
     79000   1.0403446      0.0014239449  -8.8216183     -9.860229     
     80000   1.0553031      0.0015469555  -8.876726      -9.9302703    
     81000   1.0266565      0.0014057401  -8.9613115     -9.986257     
     82000   0.99717429     0.00096083423 -9.1002313     -10.095744    
     83000   1.0085112      0.0014581067  -9.1139926     -10.120823    
     84000   0.93055497     0.00073494921 -9.2052057     -10.13421     
     85000   1.02462        0.0018867351  -9.2143472     -10.237259    
     86000   0.95226995     0.0012117052  -9.3516994     -10.302382    
     87000   1.0077664      0.0014685501  -9.3789426     -10.385029    
     88000   0.98313309     0.0011412265  -9.5076084     -10.489103    
     89000   1.007866       0.001482046   -9.6008339     -10.60702     
     90000   1.0485958      0.0013336788  -9.5208908     -10.567739    
     91000   0.94092869     0.00056885147 -9.6387723     -10.578133    
     92000   1.0669185      0.0014002635  -9.5651442     -10.630284    
     93000   0.96213505     0.00091954403 -9.7116241     -10.672156    
     94000   1.0033738      0.0010487206  -10.187375     -11.189077    
     95000   1.0110066      0.00081734519 -10.127047     -11.136369    
     96000   1.0077365      0.0013725233  -10.45998      -11.466037    
     97000   0.96139009     0.0010056578  -10.562552     -11.52234     
     98000   0.85263792    -1.255718e-07  -10.621523     -11.47274     
     99000   1.0445762      0.0010766561  -10.590998     -11.633833    
    100000   1.0076314      0.00090714373 -10.715769     -11.721721    
    101000   1.0141551      0.0011615095  -10.76046      -11.772925    
    102000   0.99932807     0.0014179899  -10.880591     -11.878253    
    103000   0.9801928      0.00078086142 -10.873633     -11.852192    
    104000   1.0063451      0.0013930231  -10.891271     -11.895939    
    105000   1.0283745      0.0017882354  -11.021607     -12.048268    
    106000   0.98513025     0.00058767458 -11.062483     -12.045971    
    107000   0.96959409     0.00090151463 -11.117319     -12.085297    
    108000   0.99551303     0.001222799   -11.079063     -12.072917    
    109000   0.99176982     0.0012855126  -11.075299     -12.065416    
    110000   1.082278       0.0012686654  -10.947764     -12.028238    
    111000   0.98861068     0.0008032062  -11.0288       -12.015763    
    112000   0.98047795     0.0011953487  -11.120945     -12.099789    
    113000   0.96614839     0.0011167935  -11.140317     -12.104855    
    114000   0.94437351     0.00046191121 -11.181183     -12.123983    
    115000   1.0508994      0.0015473209  -11.132684     -12.181832    
    116000   0.92651047     0.00074283697 -11.247743     -12.172709    
    117000   0.94460081     0.0010395213  -11.282469     -12.225495    
    118000   0.96417541     0.0012791226  -11.280373     -12.242941    
    119000   1.05527        0.0016511936  -11.200725     -12.254236    
    120000   0.9579803      0.0014605339  -11.398056     -12.354439    
    121000   0.93838526     0.0005719686  -11.348748     -12.285569    
    122000   0.96089806     0.00092409265 -11.404065     -12.363362    
    123000   0.93921308     0.00074360599 -11.42334      -12.360988    
    124000   0.99414975     0.00069495654 -11.332616     -12.325109    
    125000   0.94303682     0.00088187659 -11.468299     -12.409764    
    126000   0.99532305     0.0013460233  -11.413792     -12.407456    
    127000   0.99962175     0.0013088715  -11.440809     -12.438764    
    128000   1.0773468      0.001725075   -11.359468     -12.435019    
    129000   1.0237443      0.0010151826  -11.468696     -12.490734    
    130000   1.0023705      0.0011970907  -11.550174     -12.550874    
    131000   1.0185572      0.0011666614  -11.525431     -12.542291    
    132000   1.0283349      0.00104256    -11.56087      -12.587491    
    133000   1.0055235      0.0015514173  -11.638136     -12.641984    
    134000   0.99389238     0.00049572743 -11.561658     -12.553894    
    135000   1.0409894      0.00092041786 -11.693042     -12.732297    
    136000   0.99164752     0.0010977785  -11.826948     -12.816943    
    137000   0.94433009     0.00061133755 -11.86713      -12.809887    
    138000   0.96835855     0.00068107422 -11.814903     -12.781647    
    139000   0.96113302     0.00089143575 -11.848358     -12.80789     
    140000   1.0176994      0.00068564747 -12.036607     -13.05261     
    141000   1.0026939      0.00080206195 -12.093078     -13.094101    
    142000   0.95861574     0.00072423144 -12.169594     -13.126612    
    143000   0.97125297     0.0007768194  -12.585424     -13.555058    
    144000   1.0077019      0.00079907217 -12.528914     -13.534937    
    145000   0.95204393     0.00054946154 -12.613365     -13.563823    
    146000   1.1030658      0.001467249   -12.878558     -13.979785    
    147000   0.91441407    -0.00011734924 -13.032742     -13.945632    
    148000   0.98141346     0.00094843206 -13.029859     -14.009637    
    149000   0.9934566      0.00095234118 -13.024538     -14.016339    
    150000   1.0099043      0.00055395225 -12.956211     -13.964432    
    151000   0.98296998     0.00031752055 -13.044124     -14.025455    
    152000   0.97727587     0.00064980234 -13.103573     -14.07922     
    153000   0.99139302     0.00070314941 -13.063696     -14.053436    
    154000   0.99140791     0.00087163153 -13.136917     -14.126672    
    155000   0.92941783     0.0003783779  -13.162445     -14.090313    
    156000   1.1174409      0.0017652381  -13.067039     -14.182618    
    157000   1.0429767      0.0011897125  -13.14894      -14.190178    
    158000   1.0536813      0.00098143778 -13.609058     -14.660983    
    159000   0.9568671      0.00026364145 -13.795718     -14.75099     
    160000   0.98113433     0.0010500745  -13.837885     -14.817384    
    161000   0.96001441     0.00039805978 -13.847311     -14.805725    
    162000   1.0781772      0.0010941037  -13.722418     -14.798798    
    163000   1.0627935      0.0010216025  -13.735594     -14.796616    
    164000   1.0213039      0.00089629985 -13.804798     -14.8244      
    165000   0.92359963     0.00023491478 -13.88581      -14.807871    
    166000   1.0373156      0.00065017287 -13.815741     -14.851328    
    167000   0.93515316    -0.00030852378 -13.891593     -14.825188    
    168000   1.0373953      0.00073529296 -13.833637     -14.869304    
    169000   0.98197261     0.00054305754 -14.085001     -15.065337    
    170000   0.97366574     0.00073582565 -14.101041     -15.073084    
    171000   1.0150048      0.00093676344 -14.061133     -15.074446    
    172000   1.0130198      0.00038942522 -14.021575     -15.032907    
    173000   1.0798929      0.0014456586  -14.011664     -15.089757    
    174000   1.0687644      0.00050893819 -13.924532     -14.991515    
    175000   0.98458178     0.00064478911 -14.071084     -15.054025    
    176000   1.0045292      0.001130821   -14.098771     -15.101626    
    177000   1.0410735      0.00092989572 -14.026575     -15.065914    
    178000   1.0589081      0.0010060808  -13.986945     -15.044088    
    179000   0.90653313    -0.00054022619 -14.16224      -15.067263    
    180000   1.0670156      0.00091231909 -14.076213     -15.14145     
    181000   1.0109997      0.0012455549  -14.174686     -15.184001    
    182000   1.0859089      0.0012565251  -14.052694     -15.136793    
    183000   1.0274906      0.00056679639 -14.09081      -15.116588    
    184000   1.023984       0.00094056105 -14.237413     -15.25969     
    185000   0.99230689     0.00091149637 -14.800134     -15.790788    
    186000   0.99068016     0.00073789331 -14.776364     -15.765393    
    187000   0.95706057     0.00074511708 -14.841799     -15.797265    
    188000   1.0357213      0.0011527948  -14.750465     -15.78446     
    189000   1.0402183      0.0010403155  -14.748576     -15.787061    
    190000   1.0293885      0.0013691935  -14.822421     -15.850094    
    191000   0.99950696     0.00088744364 -14.822852     -15.820693    
    192000   0.9955735      0.0010395115  -14.855687     -15.849601    
    193000   1.1133141      0.0016456055  -14.702954     -15.814413    
    194000   1.0185772      0.00088194836 -14.832874     -15.849754    
    195000   1.0214588      0.0012369868  -14.867771     -15.887527    
    196000   0.97430373     0.00064881472 -14.886097     -15.858777    
    197000   1.0055513      0.0008233132  -14.850386     -15.854261    
    198000   1.0345044      0.00078888258 -14.798917     -15.831698    
    199000   1.012321       0.00059485853 -14.837105     -15.847739    
    200000   1.0659568      0.00060682909 -14.738741     -15.802921    
    201000   0.99212401     0.00076688155 -14.887403     -15.877874    
    202000   0.99053246     0.00096635987 -14.917494     -15.906375    
    203000   1.0492915      0.00094484158 -14.874963     -15.922505    
    204000   1.1137539      0.0011027036  -14.777872     -15.889769    
    205000   0.98833922     0.00049964484 -14.922739     -15.909431    
    206000   1.0011719      3.1574529e-05 -14.831652     -15.831155    
    207000   1.0044851      0.00089638745 -14.921541     -15.924352    
    208000   0.97628644     0.00050983745 -14.92241      -15.897069    
    209000   0.97860186     0.00052919407 -14.940444     -15.917415    
    210000   1.0424959      0.0012565233  -14.900321     -15.941079    
    211000   1.0573678      0.0009800481  -14.87334      -15.928945    
    212000   0.98076032     0.00071286095 -14.972378     -15.951504    
    213000   0.98190776     0.00060362302 -14.965156     -15.945427    
    214000   0.92537709    -0.00024259731 -14.96387      -15.887704    
    215000   1.0372126      0.00042337252 -14.853653     -15.889137    
    216000   0.99229959     0.0010969903  -14.986134     -15.976779    
    217000   0.99418208     0.00028971968 -14.917901     -15.910426    
    218000   1.0055465      0.00075681554 -14.942398     -15.946269    
    219000   1.0497678      0.00047027955 -14.947273     -15.995292    
    220000   1.0145333      0.00051646354 -14.991993     -16.004835    
    221000   0.9892052      0.00050521082 -15.045812     -16.033368    
    222000   1.0423456      0.00034879982 -14.971689     -16.012297    
    223000   1.0077517     -0.00011797111 -14.994935     -16.001007    
    224000   0.98769487     5.1464801e-05 -15.08009      -16.066139    
    225000   0.99187192     0.00059007645 -15.133367     -16.123586    
    226000   1.0429077      0.0013776356  -15.160222     -16.201392    
    227000   0.97266003     0.00020097043 -15.156336     -16.127375    
    228000   0.96049682     0.00046351787 -15.222158     -16.181054    
    229000   1.1539613      0.001009567   -15.360738     -16.512776    
    230000   1.000952       0.00033338511 -15.579445     -16.578729    
    231000   1.0203884      0.00044859832 -15.556247     -16.574935    
    232000   1.0142744      0.0012072485  -15.622464     -16.635048    
    233000   1.012791      -0.00011460426 -15.497485     -16.508588    
    234000   0.88915894    -0.00015702957 -15.687401     -16.575078    
    235000   1.0978269      0.00072389445 -15.453712     -16.549709    
    236000   0.9902089      0.00027339722 -15.580895     -16.569453    
    237000   0.9967893      3.5358245e-05 -15.551845     -16.546973    
    238000   1.0599595      0.00076451779 -15.513001     -16.571194    
    239000   0.95516816     5.8119694e-05 -15.779178     -16.732754    
    240000   1.0108558      0.0009194025  -15.768414     -16.777585    
    241000   1.015594       0.000652338   -15.736562     -16.750463    
    242000   1.0078382      0.00050830756 -15.737577     -16.743736    
    243000   1.0084472      0.00050570578 -15.933216     -16.939983    
    244000   0.97040267     7.3064322e-05 -15.940644     -16.90943     
    245000   0.90827606    -0.00025890122 -16.010895     -16.917657    
    246000   1.0302759      0.00048427671 -15.889738     -16.918297    
    247000   1.0280789      0.00053917462 -15.974683     -17.001048    
    248000   1.0059252      0.00043812189 -16.320201     -17.324449    
    249000   0.9797794      0.00074907292 -16.396201     -17.374348    
    250000   0.95021642     0.00044829064 -16.407702     -17.356335    
    251000   0.97323854     0.00071251252 -16.403253     -17.37487     
    252000   1.0326692      0.00076055376 -16.321068     -17.352017    
    253000   0.97098414     0.00058420175 -16.397053     -17.366419    
    254000   1.0890794      0.00043552771 -16.197392     -17.284656    
    255000   1.0047204      0.00052513656 -16.342103     -17.345148    
    256000   1.0245907      0.00098380972 -16.387005     -17.409888    
    257000   1.0314384      0.00044459971 -16.32814      -17.357859    
    258000   0.9354815      1.9639729e-06 -16.417784     -17.351706    
    259000   1.0055326      0.00023312337 -16.346328     -17.350185    
    260000   0.99602443     0.00044258137 -16.381592     -17.375956    
    261000   1.0302245      0.00084138222 -16.374415     -17.402923    
    262000   0.97914832    -9.6312682e-05 -16.395298     -17.372814    
    263000   1.0482718      0.00048681123 -16.354445     -17.400969    
    264000   1.0025291      0.0009985694  -16.465439     -17.466297    
    265000   1.0696659      0.00089958572 -16.339836     -17.40772     
    266000   1.0289309      7.9237233e-05 -16.338968     -17.366184    
    267000   0.96049427     7.8931792e-05 -16.445947     -17.40484     
    268000   0.99191931     0.0005801053  -16.460146     -17.450412    
    269000   1.0027155      0.00081977744 -16.457086     -17.45813     
    270000   0.95548617     0.00012262382 -16.462321     -17.416215    
    271000   1.0623318      0.00078357353 -16.356103     -17.416664    
    272000   1.0452846      0.00085654782 -16.392885     -17.436428    
    273000   0.96627416     0.00061196032 -16.493266     -17.45793     
    274000   1.0082092      0.00049571887 -16.412281     -17.41881     
    275000   1.0682258      0.00098895347 -16.378754     -17.445199    
    276000   0.94813051     0.00037093956 -16.502373     -17.448923    
    277000   1.0578953      0.00081327307 -16.712682     -17.768814    
    278000   1.0280093      0.00033472253 -16.706647     -17.732943    
    279000   0.97725601     0.00059077774 -16.849174     -17.824801    
    280000   1.0411808      0.00080740182 -16.775373     -17.814818    
    281000   0.97443484     0.00038406912 -16.847003     -17.819814    
    282000   1.0655037      0.0007917128  -16.734579     -17.798307    
    283000   1.0662431      0.00092264598 -17.526243     -18.590709    
    284000   1.0301528     -1.2565705e-05 -17.467444     -18.49588     
    285000   1.0161893      0.0002689165  -17.527493     -18.541989    
    286000   1.0155396      0.00013739561 -17.529838     -18.543685    
    287000   1.0434045      0.00087112341 -17.537115     -18.578781    
    288000   0.99165285     0.00062925177 -17.603402     -18.593402    
    289000   0.91240181    -0.00052084047 -17.619681     -18.530562    
    290000   1.0218276      0.0010562345  -17.590472     -18.610597    
    291000   0.99999629     0.00045875297 -17.584059     -18.582388    
    292000   1.0513509      0.00086399471 -17.534756     -18.584355    
    293000   1.0180935      0.00049964584 -17.556131     -18.572528    
    294000   1.0875513      0.0013801716  -17.510472     -18.596211    
    295000   0.92436013    -1.8284747e-06 -17.645514     -18.568334    
    296000   1.0336996      0.00053476891 -17.531068     -18.563045    
    297000   1.0590933      0.00058753112 -17.493189     -18.550517    
    298000   0.92015041    -0.00011172035 -17.636289     -18.554905    
    299000   1.0204471      0.00083155118 -17.572118     -18.590865    
    300000   0.99551591     0.00050185685 -17.596199     -18.590056    
    301000   0.97605867     0.00058912493 -17.624979     -18.599411    
    302000   1.0431312      0.0010396076  -17.593818     -18.635211    
    303000   1.0306123      0.00076543829 -17.598777     -18.627672    
    304000   1.026147       0.00091389504 -17.616843     -18.64128     
    305000   0.96720279     0.00065520146 -17.688262     -18.653853    
    306000   0.98101613     0.00030404492 -17.629982     -18.609363    
    307000   1.0087733      0.00013825009 -17.558132     -18.565224    
    308000   0.99405976    -6.2810305e-06 -17.577885     -18.570288    
    309000   0.99180226     0.00042558621 -17.623091     -18.613241    
    310000   1.042105       0.0011079746  -17.597117     -18.637485    
    311000   1.0230184      0.00039879351 -17.605118     -18.626431    
    312000   1.0179998      1.0896956e-05 -17.563816     -18.580119    
    313000   1.0201984      0.00052356712 -17.608174     -18.626672    
    314000   0.96624912     0.00016453203 -17.658938     -18.623577    
    315000   1.0154995      0.00060210808 -17.613617     -18.627424    
    316000   0.99868965     0.00055800449 -17.649169     -18.646194    
    317000   0.99699749     0.00075356554 -17.674854     -18.670189    
    318000   0.95669448     0.0006376057  -17.720366     -18.675466    
    319000   1.0121051      0.00024807574 -17.572855     -18.583273    
    320000   1.0560036      0.00090828515 -17.590555     -18.644799    
    321000   1.0314191      0.00068572749 -17.585421     -18.615121    
    322000   1.0388348      0.00076383197 -17.596362     -18.633465    
    323000   1.0206459      0.00058752933 -17.623707     -18.642651    
    324000   0.96154746    -0.0003701056  -17.608296     -18.568241    
    325000   0.96015454    -6.2735537e-05 -17.652603     -18.611158    
    326000   0.99899999     0.00054990673 -17.642947     -18.640282    
    327000   1.0199909      0.00066042193 -17.625838     -18.644129    
    328000   1.076723       0.0013146002  -17.590136     -18.665065    
    329000   1.0514315      0.00043193854 -17.539339     -18.589018    
    330000   0.99201191     0.00063138917 -17.667266     -18.657625    
    331000   0.91989517    -0.00019456968 -17.704801     -18.623163    
    332000   1.0091616      0.00060430546 -17.632311     -18.639791    
    333000   0.99938002    -0.00022010639 -17.585123     -18.582838    
    334000   1.0218892      0.00051330652 -17.605601     -18.625787    
    335000   0.95870579     0.00027507559 -17.678755     -18.635863    
    336000   1.0280637     -0.00017858107 -17.64025      -18.6666      
    337000   1.019262      -2.2332588e-05 -18.330887     -19.34845     
    338000   1.0006804      0.00072232963 -18.443654     -19.442666    
    339000   0.97178195     0.00056561657 -18.47183      -19.441992    
    340000   0.95051878    -2.2611617e-05 -18.44721      -19.396144    
    341000   1.0280834      0.00070509431 -18.399504     -19.425874    
    342000   0.95577178     0.0001418962  -18.453985     -19.408164    
    343000   1.0122716      9.9109006e-05 -18.364656     -19.375241    
    344000   0.99146077     0.00027206461 -18.41132      -19.401128    
    345000   1.7080664     -0.00046810125 -18.562821     -20.26804     
    346000   1.0290865      0.00087217686 -20.222008     -21.24938     
    347000   0.99914123     0.00080156364 -20.268614     -21.26609     
    348000   0.98564767     0.00010998432 -20.234669     -21.218674    
    349000   0.9917319     -0.00013945414 -20.198678     -21.188757    
    350000   1.0110736      0.00041597747 -20.221766     -21.231154    
    351000   1.0392238      0.00014019657 -20.15922      -21.196712    
    352000   1.0143898      0.00011512429 -20.186133     -21.198832    
    353000   1.0042815      0.00063043199 -20.25519      -21.257798    
    354000   0.96902813     0.00017637103 -20.268676     -21.236089    
    355000   0.97198459     0.00054491122 -20.289124     -21.259489    
    356000   0.95884987     0.00030901851 -20.313346     -21.270598    
    357000   1.004569       0.00054020366 -20.246796     -21.249691    
    358000   0.97306136    -0.00021507577 -20.219379     -21.190819    
    359000   1.0640418      0.0010022871  -20.19605      -21.258318    
    360000   1.0647864      0.0014202094  -20.229614     -21.292626    
    361000   0.99019857     0.00061664673 -20.263997     -21.252545    
    362000   0.98997962     0.00090298912 -20.302627     -21.290957    
    363000   0.96936182    -0.00056981571 -20.200259     -21.168005    
    364000   0.95423612     0.00059429946 -20.335419     -21.288064    
    365000   0.96868882     6.9399826e-05 -20.834605     -21.801679    
    366000   0.99662568     0.00041637137 -20.82462      -21.819585    
    367000   1.0197822      0.0005371121  -20.803446     -21.821529    
    368000   1.0560154      0.00051469746 -20.755553     -21.809809    
    369000   0.94832437     0.00024230506 -20.890014     -21.836758    
    370000   0.94204307    -0.00021862677 -20.961367     -21.90184     
    371000   0.98099256     0.0010667379  -21.016275     -21.995633    
    372000   0.99513667     0.00058528708 -21.334322     -22.3278      
    373000   1.0008831     -0.00013852794 -21.250094     -22.249309    
    374000   1.0212842      0.00077667897 -21.310653     -22.330235    
    375000   1.0147567      0.00013095778 -21.246395     -22.25946     
    376000   1.0214409      0.0012381789  -21.339354     -22.359092    
    377000   0.97585973    -0.00027118367 -21.491229     -22.465462    
    378000   1.0271555      0.00055251797 -21.485997     -22.511441    
    379000   1.0195044      0.00047169693 -21.499886     -22.517691    
    380000   1.0427639      0.00036880325 -21.443565     -22.484591    
    381000   0.99524005     0.00030770183 -21.512016     -22.505597    
    382000   1.0073842      0.00055243031 -21.512132     -22.517838    
    383000   0.97477906     8.6381652e-06 -21.513864     -22.487018    
    384000   0.9277478     -0.0010897603  -21.492628     -22.418829    
    385000   0.95885001     0.00063641586 -21.601741     -22.558993    
    386000   0.96020299     9.775224e-05  -21.553875     -22.512478    
    387000   1.0174761      0.000330846   -22.526086     -23.541866    
    388000   0.97565946    -0.00015424822 -22.542541     -23.516574    
    389000   1.0256725      0.00083204167 -23.143186     -24.167149    
    390000   1.0151744      0.0009683307  -23.178504     -24.191986    
    391000   0.94819911    -0.00019851255 -23.180458     -24.127077    
    392000   1.0148076      0.00039501023 -23.117283     -24.1304      
    393000   0.93971835     7.8749165e-05 -23.219431     -24.157583    
    394000   0.92542587     0.00018635843 -23.257468     -24.181352    
    395000   0.99609026     0.00052159147 -23.167622     -24.162052    
    396000   0.98938001    -4.241208e-05  -23.132872     -24.120603    
    397000   1.1354867      0.0016757234  -23.053904     -24.187498    
    398000   1.0531661      0.00067270533 -23.088537     -24.139947    
    399000   1.0104265      0.00058229212 -23.154683     -24.163425    
    400000   0.96766643    -0.00012690225 -23.147861     -24.113914    
    401000   0.99312069     0.00014451088 -23.124353     -24.115818    
    402000   1.0458992      0.00093058797 -23.102512     -24.146668    
    403000   0.9999971      0.00053344954 -23.143442     -24.141772    
    404000   1.0159069     -9.8669252e-05 -23.070884     -24.085098    
    405000   1.0253525      0.00069902474 -23.122292     -24.145935    
    406000   0.93452683     0.00028254586 -23.226333     -24.159302    
    407000   1.0152775      0.00024037078 -23.096408     -24.109993    
    408000   0.96021244     0.00034651068 -23.189975     -24.148587    
    409000   1.008489       0.0008477594  -23.149345     -24.156153    
    410000   1.005186       0.00045656708 -23.133774     -24.137285    
    411000   0.99845103     0.00050410808 -23.158417     -24.155204    
    412000   1.0507819      0.00027904837 -23.053026     -24.102057    
    413000   0.98678009     0.00025722365 -23.159465     -24.144601    
    414000   1.0226971      0.00027689002 -23.096184     -24.117177    
    415000   0.99918829     0.00026154224 -23.12164      -24.119163    
    416000   1.0475342      0.00057460796 -23.064624     -24.110413    
    417000   0.92471329    -0.0002542374  -23.186117     -24.10929     
    418000   1.0092497      0.00027543828 -23.106819     -24.114387    
    419000   0.9473866      0.00062777946 -23.235773     -24.181581    
    420000   1.052972       0.0007664279  -23.096086     -24.147303    
    421000   1.0343135      0.00058462098 -23.102952     -24.135542    
    422000   1.0086552      0.00025412896 -23.106018     -24.112992    
    423000   0.91984094    -0.00018204966 -23.195181     -24.113488    
    424000   1.020746       0.00071493439 -23.12282      -24.141865    
    425000   1.0545121      0.00097730588 -23.108831     -24.161585    
    426000   1.0297799      6.0228891e-05 -23.056084     -24.084147    
    427000   0.9639031     -0.00065055847 -23.095376     -24.057673    
    428000   1.0602497      0.0010216942  -23.107676     -24.166159    
    429000   1.052131       0.00093266512 -23.095537     -24.145914    
    430000   1.0066291      0.00026919229 -23.116744     -24.121695    
    431000   1.0057111     -0.00016165844 -23.070713     -24.074748    
    432000   1.0217718      0.00039409155 -23.1006       -24.120669    
    433000   1.0147761      0.00057531104 -23.119176     -24.132261    
    434000   1.0210303      0.00032943298 -23.094516     -24.113844    
    435000   1.0852514      0.00032454773 -23.006997     -24.090439    
    436000   1.0276297      0.00030338263 -23.081083     -24.107       
    437000   0.95002355    -0.00019052826 -23.17184      -24.12028     
    438000   0.96821806     8.8395594e-05 -23.16358      -24.130185    
    439000   1.028646       0.00056490968 -23.105814     -24.132745    
    440000   0.96918617     0.00042109073 -23.185762     -24.153333    
    441000   1.0262564      0.00079352824 -23.134038     -24.158584    
    442000   1.0531957      0.0007917465  -23.081196     -24.132636    
    443000   0.96542257     0.00033950385 -23.16765      -24.131464    
    444000   0.99275474     0.00084173454 -23.180399     -24.171499    
    445000   1.043945       0.00022507049 -23.096388     -24.138593    
    446000   0.94987287    -0.00058226016 -23.149263     -24.097553    
    447000   0.99601841     0.00062575381 -23.879838     -24.874196    
    448000   1.0334911      0.00057742642 -23.811287     -24.843055    
    449000   0.9293301      0.00015245844 -23.942724     -24.870505    
    450000   0.99636795     0.00047017416 -23.878553     -24.87326     
    451000   1.0123444      0.00056999796 -23.861159     -24.871816    
    452000   0.94702362    -0.00043062747 -23.890084     -24.835529    
    453000   0.96320586     0.00025354795 -23.927523     -24.889123    
    454000   0.99283519     0.00013610489 -23.855294     -24.846475    
    455000   1.6920764      0.0027416469  -23.996295     -25.685552    
    456000   1.0038081      0.00025331269 -24.872035     -25.87417     
    457000   0.99413473     0.00019418665 -24.888678     -25.881156    
    458000   1.0017188      0.00048623342 -24.901496     -25.901546    
    459000   0.99905817     0.00011569483 -24.871338     -25.868732    
    460000   0.92696372     0.0002172088  -24.964712     -25.890131    
    461000   0.98665811     0.00023828558 -24.872362     -25.857376    
    462000   1.046303       0.00054787385 -24.81689      -25.86145     
    463000   0.96471393     9.3467731e-05 -24.919743     -25.882849    
    464000   1.0255538      0.00132932    -24.939431     -25.963275    
    465000   1.0225012      0.00083540653 -24.884427     -25.905224    
    466000   0.9944378     -1.7514855e-05 -24.873512     -25.866292    
    467000   0.91737665    -0.00040909766 -24.954174     -25.870022    
    468000   0.98098675     5.9927264e-05 -24.897616     -25.876968    
    469000   0.96010112     0.00076780918 -24.980546     -25.939047    
    470000   0.97864516    -0.00023943069 -24.892877     -25.869891    
    471000   0.99944013    -2.1563059e-05 -24.868393     -25.866168    
    472000   0.99754124     8.1148472e-05 -24.857036     -25.852914    
    473000   1.0334544      0.00048797672 -24.855514     -25.887246    
    474000   0.99199788     0.00064481204 -24.922883     -25.913227    
    475000   1.0274139      0.00094521583 -24.884201     -25.909903    
    476000   0.99163922    -0.00018369479 -24.854252     -25.844239    
    477000   0.95127049     8.8169245e-05 -24.95453      -25.904215    
    478000   0.99809654     0.00052792115 -25.975973     -26.972406    
    479000   1.0443873      0.0010546897  -25.963325     -27.005971    
    480000   0.99402608    -3.5526015e-05 -25.945046     -26.937416    
    481000   1.0194488      0.00026418925 -25.935198     -26.952948    
    482000   0.98980687    -0.00015540095 -25.939649     -26.927806    
    483000   0.98376117     6.1099554e-05 -25.960393     -26.942514    
    484000   0.98899371     0.00011642321 -25.966522     -26.953867    
    485000   0.99797871    -0.00020342097 -25.928001     -26.924316    
    486000   0.94890509    -0.00052171137 -25.97283      -26.920154    
    487000   0.95380617     3.7085106e-05 -25.997296     -26.949512    
    488000   1.0580044      0.00092968219 -25.935892     -26.992133    
    489000   0.92623986     4.6090965e-05 -26.055605     -26.980301    
    490000   1.0697146      0.00072722363 -25.897409     -26.965341    
    491000   0.96236459    -0.00048301389 -25.955714     -26.916474    
    492000   0.99879027     0.0012596242  -26.047661     -27.044787    
    493000   1.0104029      0.00044038452 -25.967226     -26.975945    
    494000   1.0562215      4.5011216e-05 -25.857399     -26.91186     
    495000   0.98996172     0.00061880403 -25.997929     -26.98624     
    496000   0.95712191     0.00065231512 -26.063822     -27.019348    
    497000   0.99880084    -0.00010645319 -25.939948     -26.937084    
    498000   0.99418815     0.00053746702 -25.990573     -26.983105    
    499000   0.98753539     7.0513825e-05 -25.969334     -26.955224    
    500000   1.0317455      0.0013420124  -26.010242     -27.040268    
    501000   1.0070651      0.00072696    -25.995104     -27.000491    
    502000   1.0437355      0.00074694847 -25.930318     -26.972314    
    503000   0.95473825    -0.00038201466 -25.97932      -26.932467    
    504000   1.0416017      0.00057977573 -25.933571     -26.973437    
    505000   1.0344037      0.0004491526  -25.91973      -26.95241     
    506000   1.0543815      0.0008660111  -25.929335     -26.981959    
    507000   0.99310726    -5.2420076e-05 -25.952359     -26.943811    
    508000   0.93259556     2.4109312e-05 -26.052007     -26.983048    
    509000   1.011793      -6.0002488e-05 -25.900311     -26.910418    
    510000   0.90831337     3.1033401e-05 -26.08083      -26.987629    
    511000   0.98819034     0.0010533844  -26.043705     -27.030249    
    512000   1.0214135      0.00043459728 -25.94505      -26.964762    
    513000   1.0766521      0.00095763787 -25.901296     -26.976153    
    514000   0.98113762     0.00019327146 -25.988705     -26.968207    
    515000   0.97196313     0.00069083555 -26.042349     -27.012692    
    516000   0.98427278     0.00022407334 -25.967531     -26.950164    
    517000   1.0405819      0.00052446344 -25.924547     -26.963394    
    518000   1.0321546      0.0010474831  -25.970671     -27.001105    
    519000   0.95165026    -9.2189024e-05 -26.007814     -26.957878    
    520000   0.89159503    -0.00050309878 -26.064735     -26.954844    
    521000   1.045299       0.00038139823 -25.900562     -26.944119    
    522000   1.0092728      0.00065174363 -25.960529     -26.96812     
    523000   0.96008177     0.00036998323 -26.023078     -26.98156     
    524000   0.98951272     0.00058932095 -25.993861     -26.981724    
    525000   1.0599128      0.00062339329 -25.881226     -26.939372    
    526000   1.0275854      0.00063389526 -25.93826      -26.964133    
    527000   0.90367992     9.795889e-05  -26.070884     -26.973058    
    528000   0.90689374    -0.00048007833 -26.025167     -26.930549    
    529000   1.0224329      0.00073495664 -25.939522     -26.960251    
    530000   1.0152946      0.00044143934 -25.947199     -26.960802    
    531000   1.0304292     -0.00013584636 -25.859336     -26.888048    
    532000   0.9065166     -0.00078843537 -25.991871     -26.896876    
    533000   1.0148512      0.00071965171 -25.953409     -26.966569    
    534000   1.0286077      0.0011457191  -25.969782     -26.996676    
    535000   0.94505676     3.3739908e-05 -26.010282     -26.953764    
    536000   1.0050874      0.00081131023 -25.992338     -26.99575     
    537000   1.0300965      0.00032137337 -25.913652     -26.942032    
    538000   1.0034278      0.00054312937 -25.986865     -26.988621    
    539000   0.97165072     7.3300465e-05 -25.993907     -26.963938    
    540000   0.97508182     0.00010565004 -25.990608     -26.964065    
    541000   0.98691387     0.00028813489 -25.986383     -26.971652    
    542000   0.94047264    -0.0001642639  -26.033711     -26.972617    
    543000   1.0005599      0.00052095646 -25.989945     -26.988837    
    544000   0.9977791      0.00024721018 -25.973843     -26.969959    
    545000   0.96265453    -5.7255129e-05 -25.999985     -26.961035    
    546000   0.96649112     0.00030707878 -26.018074     -26.982954    
    547000   1.0428638      0.00052623114 -25.920915     -26.962041    
    548000   1.034601       0.0009169521  -25.965858     -26.998734    
    549000   0.97189258     0.00030804364 -26.019162     -26.989435    
    550000   1.068607       0.00086974776 -26.683616     -27.750442    
    551000   0.95879254     0.00052337201 -26.832618     -27.789813    
    552000   0.9506831     -0.00037147504 -26.781686     -27.730785    
    553000   1.1023658     -0.00080697946 -27.701365     -28.801894    
    554000   1.0121251      0.0002416887  -27.939258     -28.949696    
    555000   0.9992001      0.00064693513 -27.979093     -28.976628    
    556000   0.97085126     0.00078358601 -28.040593     -29.009826    
    557000   0.95016391    -0.00020248108 -27.999524     -28.948105    
    558000   0.99479186     0.0005733275  -27.997292     -28.990426    
    559000   0.92299294    -0.00046556633 -28.016562     -28.938016    
    560000   1.0048767     -0.0006361322  -27.853157     -28.856359    
    561000   0.95707849    -4.9230912e-05 -27.99517      -28.950653    
    562000   1.0199166     -0.00010069008 -27.904355     -28.922572    
    563000   1.0433439      9.2838681e-05 -27.885268     -28.926873    
    564000   1.0270389      0.0012698637  -27.998309     -29.023636    
    565000   1.0756332      0.00071753761 -27.89721      -28.971051    
    566000   1.0605019      0.0005351604  -27.894239     -28.952973    
    567000   1.0080744      0.00020068825 -27.949061     -28.955455    
    568000   0.93430695     0.0004850074  -28.352412     -29.285162    
    569000   1.0609048      0.00070820978 -28.170677     -29.229814    
    570000   0.94243487     0.00037985652 -28.338364     -29.279228    
    571000   0.93638675     2.7776683e-05 -28.322781     -29.257607    
    572000   1.0371997      6.4113228e-05 -28.159275     -29.194746    
    573000   0.94083674    -7.9739516e-05 -28.310252     -29.24952     
    574000   1.0398764      0.00050262361 -28.18642      -29.224563    
    575000   0.97859325     0.00036140123 -28.281467     -29.258429    
    576000   1.0228927      0.00052882722 -28.242985     -29.264173    
    577000   1.0263398      0.00078577349 -28.239274     -29.263904    
    578000   1.0406466      0.0006385872  -28.20723      -29.246142    
    579000   0.90241923    -0.00038099545 -28.321782     -29.222697    
    580000   0.96837463     0.00019402622 -28.275782     -29.242543    
    581000   0.97670955     7.1048328e-05 -28.265461     -29.240543    
    582000   0.99567166     0.00086157694 -28.291052     -29.285064    
    583000   1.0008562      0.00048789578 -28.258867     -29.258055    
    584000   1.0587607      0.00065058479 -28.188317     -29.245313    
    585000   1.0092141      0.00027746119 -28.232572     -29.240104    
    586000   1.0830593      0.0012156229  -28.191449     -29.272703    
    587000   1.0744422      0.00033433894 -28.122701     -29.195353    
    588000   0.9619309      0.00056716323 -28.321333     -29.281661    
    589000   1.0327775      0.0010029285  -28.235153     -29.266209    
    590000   1.0573995      0.0012775173  -28.23465      -29.290287    
    591000   0.98048041     0.00018837737 -28.258104     -29.236951    
    592000   1.0031428     -0.00085949132 -28.130624     -29.132095    
    593000   1.0423704      0.00093755294 -28.235419     -29.276052    
    594000   0.9527344     -7.9739009e-05 -28.263939     -29.215085    
    595000   0.94111254    -9.1373878e-06 -28.306193     -29.245737    
    596000   1.0213463      0.0007332117  -28.237172     -29.256816    
    597000   0.95085029    -2.8615488e-05 -28.295141     -29.244406    
    598000   1.0051714      0.00031830565 -28.239134     -29.24263     
    599000   0.99620421     0.00011657634 -28.227141     -29.221685    
    600000   0.96795405     0.00052480969 -28.303791     -29.270132    
    601000   1.0583644      0.00080533014 -28.185481     -29.242081    
    602000   1.0877187      0.00037317161 -28.119769     -29.205675    
    603000   0.95947173    -0.00048732071 -28.252139     -29.210012    
    604000   1.0061522      2.6542153e-05 -28.208544     -29.21302     
    605000   1.0601676      0.00075312312 -28.181821     -29.240222    
    606000   0.92229007    -0.00027288235 -28.298707     -29.21946     
    607000   0.99532278     0.00048659092 -28.259067     -29.252731    
    608000   0.9819656      0.00036248778 -28.258825     -29.239154    
    609000   1.0715156      0.0015843638  -28.239813     -29.309543    
    610000   0.98913457     0.00050442083 -28.266207     -29.253693    
    611000   1.0332057      0.00084069055 -28.24188      -29.273364    
    612000   0.97340488     0.00042548365 -28.286687     -29.25847     
    613000   1.0190542      0.00022790948 -28.219031     -29.236387    
    614000   0.96319212    -0.00019785727 -28.260594     -29.222181    
    615000   1.011344       0.00032258793 -28.283194     -29.292852    
    616000   1.0041121      0.00081327333 -28.345678     -29.348116    
    617000   1.0348308      0.00059733179 -28.279193     -29.312299    
    618000   1.0394533      2.1205521e-05 -29.901508     -30.939229    
    619000   1.0220985      0.0002676824  -29.970034     -30.990429    
    620000   1.0042774      0.00047022199 -29.994332     -30.996936    
    621000   0.99661324     0.00060909694 -30.031004     -31.025957    
    622000   1.0965784      0.0014706595  -29.956411     -31.051162    
    623000   0.99356591    -7.811896e-05  -29.985272     -30.977181    
    624000   1.0086784      0.00018621969 -29.966666     -30.973663    
    625000   0.98160407    -0.00019842641 -29.984433     -30.964401    
    626000   1.0234592      0.00047622109 -29.986742     -31.008495    
    627000   1.0640292      0.00084888037 -29.950647     -31.012903    
    628000   1.021533       0.00051898563 -29.985964     -31.005794    
    629000   1.1069668      0.0012832714  -29.906697     -31.011819    
    630000   0.98494122    -0.00036379635 -29.952538     -30.935837    
    631000   1.0078211      0.00024781178 -29.979024     -30.985166    
    632000   0.97508441    -0.00024602396 -29.98301      -30.95647     
    633000   1.0317094      0.00026111961 -29.944844     -30.974834    
    634000   0.98510762     0.0002984818  -30.024396     -31.007862    
    635000   1.0495035      0.00053678356 -29.942614     -30.990368    
    636000   1.0001485      0.00073763192 -30.03863      -31.037112    
    637000   0.92301904     0.0005349785  -30.139565     -31.061045    
    638000   1.0014027     -6.1418104e-05 -29.952658     -30.952392    
    639000   0.99371565     0.00083707896 -30.052242     -31.044302    
    640000   1.0008122      3.4526842e-05 -29.968639     -30.967783    
    641000   1.0318437      0.00071710549 -29.985877     -31.016001    
    642000   1.0059431      0.00018034453 -29.972909     -30.977176    
    643000   0.99597519     0.00042406216 -30.016621     -31.010936    
    644000   0.99877853     0.00077797576 -30.035502     -31.032616    
    645000   1.0282594     -0.00044394395 -29.908082     -30.934628    
    646000   1.0237623      0.0003897283  -29.966315     -30.988371    
    647000   1.0228855      0.0006763397  -29.983718     -31.004899    
    648000   0.91331763    -0.00058794545 -30.037772     -30.949568    
    649000   0.93209404     0.00071314559 -30.122275     -31.052816    
    650000   0.92042738    -2.1333141e-05 -30.083989     -31.002882    
    651000   0.9680879     -0.00016340934 -30.015747     -30.982222    
    652000   0.98630058     0.00054116888 -30.036095     -31.020752    
    653000   0.98287326     0.0010204442  -30.084422     -31.065657    
    654000   1.0545325      0.00035544141 -29.918859     -30.971634    
    655000   1.0406156      0.00055899336 -29.961403     -31.000285    
    656000   1.0961414      0.0013516762  -29.945985     -31.0403      
    657000   1.0194316     -0.00012320092 -31.571914     -32.589646    
    658000   1.0509382      0.00027638841 -31.565445     -32.614632    
    659000   0.99784003     0.000298708   -31.647217     -32.643394    
    660000   1.0157484     -8.9723872e-05 -31.590444     -32.6045      
    661000   1.0317646      0.00055358097 -31.612294     -32.642339    
    662000   0.91274275    -0.00017408814 -31.736482     -32.647704    
    663000   0.98984515     0.000391693   -31.673399     -32.661595    
    664000   1.0561475      0.00063524749 -31.594985     -32.649373    
    665000   0.99739608     0.00026086592 -31.647596     -32.64333     
    666000   0.94619125     3.6070649e-05 -31.688425     -32.633039    
    667000   1.0043742      0.00020902154 -31.632505     -32.635205    
    668000   0.98917841     0.00067005598 -31.69279      -32.68032     
    669000   0.99694531     0.00025520051 -31.644904     -32.640188    
    670000   0.99509664     0.00015706548 -31.635908     -32.629346    
    671000   0.99416272     0.0006579969  -31.677346     -32.669852    
    672000   1.0658742      0.00088579305 -31.578784     -32.642882    
    673000   1.0645643      0.00070499134 -31.577707     -32.640497    
    674000   1.1377658      0.0014921588  -31.528118     -32.663988    
    675000   1.0647076      0.0012419808  -31.620155     -32.683088    
    676000   1.0119032      0.00034942182 -31.629239     -32.639455    
    677000   0.98544447    -0.00049184999 -31.595938     -32.57974     
    678000   1.0245502      0.00012434971 -31.580313     -32.603155    
    679000   0.97956017     0.00081932431 -31.711955     -32.689882    
    680000   1.004713       0.00055923452 -31.64424      -32.647279    
    681000   1.0664165      0.00057772992 -31.567181     -32.63182     
    682000   1.0306938      0.00046191099 -31.606465     -32.635441    
    683000   0.95067926     0.00030925152 -31.711374     -32.660469    
    684000   1.1213377      0.0012354145  -31.547518     -32.666986    
    685000   0.9728745     -0.00059762615 -31.605126     -32.576379    
    686000   0.9896689      0.00018149238 -31.646573     -32.634592    
    687000   1.0036148      0.00045162948 -32.714687     -33.716629    
    688000   1.0202642      0.00054952431 -32.693518     -33.712082    
    689000   1.0323974      0.00081642504 -32.702153     -33.73283     
    690000   1.0469471      0.00041511013 -32.649775     -33.694977    
    691000   1.004756      -0.00069444682 -32.61552      -33.618601    
    692000   1.0186154      0.00041101937 -34.263085     -35.280003    
    693000   1.1305029      0.0010298665  -34.164654     -35.293273    
    694000   0.96149131     0.00050370204 -34.354767     -35.314656    
    695000   1.0007887      0.00021670703 -34.288304     -35.287425    
    696000   0.98689252     0.00072590961 -34.357596     -35.342844    
    697000   1.0973981      0.00029036711 -34.158146     -35.253715    
    698000   0.99556186     0.00029843224 -34.302522     -35.296424    
    699000   1.0369514      0.0010523165  -34.300561     -35.335784    
    700000   1.008305       0.0012350791  -34.363388     -35.370013    
    701000   1.068219       0.00057775839 -34.20966      -35.276099    
    702000   1.0549459      0.00053921446 -34.246728     -35.299915    
    703000   1.0190539      0.00033285403 -34.262404     -35.279759    
    704000   0.96845444    -0.0002031783  -34.304206     -35.271046    
    705000   0.97383625     0.0005413904  -34.364207     -35.33642     
    706000   0.98894594     9.8222736e-05 -34.311832     -35.29913     
    707000   1.0148685      0.0010240593  -34.327739     -35.340916    
    708000   1.0087071      0.0008494726  -34.33676      -35.343786    
    709000   1.0297506      0.00032253358 -34.245716     -35.273751    
    710000   1.0794855      0.00094279154 -34.226947     -35.304633    
    711000   1.0268186      0.00012938563 -34.243626     -35.268733    
    712000   1.0062415      0.00019170737 -34.285773     -35.290338    
    713000   1.0176712      0.00074539251 -34.301792     -35.317767    
    714000   0.98630861     2.4375893e-05 -34.294499     -35.279164    
    715000   1.0288289      0.00063671984 -34.284432     -35.311546    
    716000   1.0173753      0.00071770929 -34.297473     -35.313152    
    717000   1.0237549      0.00084871853 -34.317987     -35.340036    
    718000   0.99289935     0.0007451408  -34.347442     -35.338686    
    719000   0.99717074     0.00037838304 -34.299864     -35.295373    
    720000   1.0508098      0.00068510938 -34.251651     -35.300709    
    721000   1.0136284      0.00071414637 -34.30045      -35.312389    
    722000   1.0480181      0.00064452733 -34.247867     -35.294138    
    723000   1.0235248      0.00027085696 -34.251294     -35.273113    
    724000   1.0051672      0.00048282227 -34.310111     -35.313603    
    725000   1.0202768      0.00088986243 -34.304195     -35.322772    
    726000   0.97517965    -0.0001035749  -34.288279     -35.261833    
    727000   0.9882018      0.00015384939 -34.302397     -35.288952    
    728000   0.9912404      0.00019261697 -34.312569     -35.302157    
    729000   0.89692825    -0.00047196779 -34.390533     -35.285966    
    730000   0.97732621     0.00016100942 -34.330793     -35.306491    
    731000   1.0553822      0.0010704562  -34.279583     -35.333206    
    732000   1.0088555      0.00013800713 -34.261051     -35.268226    
    733000   1.0283802      8.3704857e-05 -34.246534     -35.2732      
    734000   0.96861771     0.00041189116 -34.354115     -35.321119    
    735000   1.0450395      0.00045133403 -34.252781     -35.296079    
    736000   0.98527539     1.0191004e-05 -34.286897     -35.27053     
    737000   1.0094074      0.00039412534 -34.291663     -35.299388    
    738000   0.98578019     0.00068368045 -34.340069     -35.324206    
    739000   1.0653176      0.00046098978 -34.218412     -35.281954    
    740000   0.96709279     8.4787203e-06 -34.318912     -35.284393    
    741000   1.0138655     -0.00023638208 -34.224716     -35.236892    
    742000   1.0082424     -6.0992149e-05 -34.254399     -35.260961    
    743000   0.99193877    -0.00012959561 -34.268965     -35.25925     
    744000   1.0466143      0.00014033839 -34.22184      -35.26671     
    745000   0.96097209    -0.00057358608 -34.30121      -35.26058     
    746000   1.0280523      0.00073196671 -34.297811     -35.32415     
    747000   1.0513047      0.00024597338 -34.228754     -35.278306    
    748000   1.0321158      0.00081109781 -34.296275     -35.32667     
    749000   1.0293407      0.0007875517  -34.294137     -35.321762    
    750000   1.0118164      0.00052357467 -34.307433     -35.317563    
    751000   1.0059158      0.00058932002 -34.317224     -35.321463    
    752000   1.0154072     -0.00025325774 -34.235242     -35.248957    
    753000   1.0256226     -7.2231312e-05 -34.236472     -35.260385    
    754000   1.006189       0.00081139794 -34.318556     -35.323068    
    755000   0.96312936    -0.00012374049 -34.3312       -35.292725    
    756000   0.94328509     0.00028435109 -34.603871     -35.545584    
    757000   1.0478437      0.00053501658 -34.480927     -35.527024    
    758000   1.0424177      0.00044036452 -34.482892     -35.523572    
    759000   0.99131826     0.00086364884 -34.59514      -35.584807    
    760000   1.0218803      0.00012632438 -34.489331     -35.509508    
    761000   0.95914385     0.00042334365 -34.594401     -35.551947    
    762000   0.95637074    -0.00083994696 -34.514897     -35.469673    
    763000   0.93378029    -8.3494013e-05 -34.611214     -35.543438    
    764000   1.040437       0.00011171076 -34.46353      -35.502232    
    765000   1.0099315      0.00035612858 -34.532651     -35.5409      
    766000   1.0154127      0.00039308021 -34.513249     -35.52697     
    767000   0.89880943    -0.00048005987 -34.625343     -35.522654    
    768000   0.97463803    -0.00014534957 -34.53434      -35.507354    
    769000   0.97719466     0.00014746562 -34.556861     -35.532427    
    770000   1.0166595      0.00028431072 -34.504228     -35.519193    
    771000   0.95128647     0.00020907402 -34.604602     -35.554303    
    772000   1.0740365     -0.00041871982 -34.356527     -35.428774    
    773000   0.97695446     0.00079470703 -34.605442     -35.580768    
    774000   0.95826692     0.00030396853 -34.58254      -35.53921     
    775000   1.0375719      0.00024607338 -34.484686     -35.520528    
    776000   1.0183481      0.00045865323 -34.517088     -35.533738    
    777000   0.96344693    -0.0005299817  -34.528284     -35.490125    
    778000   0.99528554     0.0010512968  -34.606938     -35.600565    
    779000   1.055725       0.00099235513 -34.501268     -35.555234    
    780000   1.0720051      0.00026681271 -34.427124     -35.497343    
    781000   1.0303126      0.00010098945 -34.483496     -35.512091    
    782000   1.0029879      0.00026159561 -34.525345     -35.526661    
    783000   1.0099356      0.00010422125 -34.490173     -35.498426    
    784000   1.0727808     -0.00032842666 -34.373369     -35.444362    
    785000   0.92654654    -0.00043893949 -34.579127     -35.504129    
    786000   1.0289088      0.0004321917  -34.504434     -35.531628    
    787000   1.0037582      0.00040190386 -34.530935     -35.53302     
    788000   1.0647783      0.0001964293  -34.436291     -35.499295    
    789000   0.94617939    -0.00018114355 -34.575744     -35.520346    
    790000   0.97261286    -4.7906434e-06 -34.551705     -35.522697    
    791000   1.0155095      0.00025569833 -34.511985     -35.525802    
    792000   0.97325455    -0.00010724355 -34.545013     -35.516646    
    793000   0.99671409    -0.0008822505  -34.434109     -35.429162    
    794000   0.93994142     0.00012911199 -34.61288      -35.551255    
    795000   1.0109484      0.00055873653 -34.526698     -35.535962    
    796000   1.003084       0.00034296065 -34.52823      -35.529642    
    797000   0.99726577     8.1723439e-05 -34.532309     -35.527912    
    798000   1.0099367      0.00087520511 -34.572997     -35.581251    
    799000   1.0311495      0.00024804922 -34.486656     -35.516087    
    800000   0.98185546    -0.00064815626 -34.497427     -35.477646    
    801000   0.99395066     0.00022091561 -34.538016     -35.530311    
    802000   0.96113066    -8.5378092e-05 -34.554275     -35.513803    
    803000   0.98022737     1.215383e-05  -34.542442     -35.521036    
    804000   1.0516418      0.00017733651 -34.462508     -35.512397    
    805000   0.96335558     0.0003775304  -34.585464     -35.547214    
    806000   1.0165259      0.000510699   -34.527793     -35.542625    
    807000   1.0406133      0.00057002344 -34.503322     -35.542201    
    808000   1.0107435      0.0008676944  -34.549704     -35.558763    
    809000   0.94827451    -7.1014801e-05 -34.583067     -35.529761    
    810000   0.99898663     0.00018598961 -34.531448     -35.52877     
    811000   0.93860961    -0.00074159668 -34.549809     -35.486854    
    812000   0.95642889     0.00023855185 -34.589374     -35.544209    
    813000   1.0038231      0.00029414146 -34.878576     -35.880726    
    814000   0.94240534    -0.00074124983 -34.889264     -35.830098    
    815000   0.94492376    -0.00015013453 -34.927281     -35.870629    
    816000   1.0771904      0.001105415   -34.845419     -35.920814    
    817000   0.96697557    -0.00066086091 -34.862469     -35.827833    
    818000   0.9884385      0.00069845106 -34.92466      -35.911451    
    819000   0.97473704    -0.00049243154 -34.86342      -35.836533    
    820000   0.93410803    -0.0001604194  -34.961806     -35.894358    
    821000   0.9724179     -2.2728062e-05 -34.900927     -35.871724    
    822000   1.0313107      0.0011164545  -34.903741     -35.933333    
    823000   1.0582612      0.00061171731 -34.823159     -35.879657    
    824000   0.95878799     0.00040721488 -34.955066     -35.912256    
    825000   1.0356775      0.00026875875 -34.838272     -35.872224    
    826000   0.98397518     0.00020650095 -34.896832     -35.879167    
    827000   1.0254127      0.00040792446 -34.857546     -35.88125     
    828000   0.95914408    -0.00045882502 -34.8975       -35.855045    
    829000   1.0198795      0.00033470716 -34.850056     -35.868235    
    830000   0.99698145     0.00024225432 -34.889146     -35.884466    
    831000   0.92999017    -0.00012434447 -34.95849      -35.88693     
    832000   1.0210752      0.00094244612 -34.902233     -35.921606    
    833000   0.98871149     0.00020721865 -34.9001       -35.887163    
    834000   1.0188183      3.2592789e-05 -34.844945     -35.862066    
    835000   1.035813       0.00015799661 -34.825442     -35.859528    
    836000   1.0417349      0.00077851244 -34.865318     -35.905317    
    837000   1.0025188      0.00048404288 -34.895598     -35.896445    
    838000   0.96591065     9.0957345e-05 -34.930112     -35.894413    
    839000   1.0180939     -9.0743555e-05 -34.830087     -35.846484    
    840000   0.93769166    -0.00021178351 -34.940662     -35.87679     
    841000   1.04994        0.00096163797 -34.862278     -35.910468    
    842000   0.99360083    -4.5416303e-05 -34.867434     -35.859379    
    843000   1.024181       0.00036526259 -34.918281     -35.940755    
    844000   0.98625738     0.00023666216 -35.739358     -36.723972    
    845000   0.98301078     0.00025593072 -35.737624     -36.718997    
    846000   0.97522817     8.232867e-05  -35.727779     -36.701382    
    847000   0.95330202     2.0531392e-05 -35.764447     -36.71616     
    848000   0.95706995     4.1802764e-05 -35.758779     -36.714254    
    849000   0.95829228    -0.0010099081  -35.678338     -36.635033    
    850000   0.97255811    -0.00018109847 -35.732229     -36.703166    
    851000   1.0389093      0.00059380988 -35.685533     -36.72271     
    852000   1.056163       0.00072736876 -35.659796     -36.714199    
    853000   1.0265116      0.00036111885 -35.678651     -36.703451    
    854000   0.9557936     -0.00026241472 -35.75032      -36.704521    
    855000   0.98389951     0.00066860063 -35.766904     -36.749164    
    856000   1.0135791      0.00061101832 -35.716876     -36.728766    
    857000   0.94108361     0.00032604712 -35.802888     -36.742403    
    858000   0.95223755     5.6471425e-05 -35.749089     -36.699739    
    859000   0.97500357     3.6334348e-05 -35.725067     -36.698445    
    860000   1.0030061      0.00041551099 -35.729498     -36.730832    
    861000   0.99459809    -0.00039009395 -35.668652     -36.661592    
    862000   0.99402899     0.00074328176 -35.767819     -36.760191    
    863000   0.99796482     0.00036648864 -35.716823     -36.713125    
    864000   1.0549538      0.00081155892 -35.680959     -36.734155    
    865000   0.9855184     -8.4506488e-06 -35.702794     -36.68667     
    866000   0.99206617     5.4724804e-05 -35.701307     -36.69172     
    867000   0.9829235     -5.7895065e-05 -35.719355     -36.700641    
    868000   0.959181       0.00035613214 -35.793719     -36.751301    
    869000   1.0942268      0.001097784   -35.644606     -36.737009    
    870000   1.0114624      0.00053306522 -35.709973     -36.71975     
    871000   1.0028898      0.00036084216 -35.717436     -36.718654    
    872000   1.0670077      0.00046756061 -35.629209     -36.694438    
    873000   0.99128303    -0.00045334347 -35.678564     -36.668195    
    874000   1.0315962      0.0008199196  -35.696014     -36.725891    
    875000   0.97624765    -0.00059761869 -35.685939     -36.660559    
    876000   0.97412065     0.00037911564 -35.757392     -36.729889    
    877000   0.95823022     0.00026961247 -35.773875     -36.730508    
    878000   1.0470431      0.0004942855  -35.673075     -36.718373    
    879000   1.0038582      0.00075438608 -35.742154     -36.744339    
    880000   1.0462928      0.00039078741 -35.653591     -36.69814     
    881000   1.0240077     -0.00010849937 -35.656415     -36.678716    
    882000   0.98089791    -0.00041079088 -35.702499     -36.681762    
    883000   0.98064175     2.0911425e-05 -35.725455     -36.704462    
    884000   1.047454       0.00026223595 -35.627016     -36.672724    
    885000   1.045549       0.00078003038 -35.679664     -36.72347     
    886000   1.0114487      0.00024516801 -35.701338     -36.711101    
    887000   0.93850183    -0.00067695562 -35.728372     -36.66531     
    888000   1.0000298     -2.9851134e-06 -35.688502     -36.686865    
    889000   1.0186405      0.00015431745 -35.679197     -36.696139    
    890000   0.96727547     6.4829072e-05 -35.734858     -36.700521    
    891000   0.97988425     0.0006088178  -35.763368     -36.741619    
    892000   0.99120585    -0.00047136681 -35.674501     -36.664055    
    893000   1.0217969     -7.8183305e-05 -35.660633     -36.680727    
    894000   1.0029947      0.00041819371 -35.729558     -36.730881    
    895000   1.0128012      0.00023475963 -35.694331     -36.705444    
    896000   1.0528667      0.00030398363 -35.638665     -36.689777    
    897000   0.97701639    -0.00021561523 -35.725123     -36.700511    
    898000   0.98884092     0.00026798492 -35.726657     -36.71385     
    899000   0.98014432    -0.0004148858  -35.691154     -36.669664    
    900000   0.91897223    -0.00023837545 -35.790361     -36.707802    
    901000   0.97416574    -4.3635912e-05 -35.726169     -36.698712    
    902000   1.0845339      0.0011728003  -35.659491     -36.742218    
    903000   0.97040289    -0.00020066548 -35.709061     -36.677846    
    904000   1.0666868      0.0010953299  -35.680692     -36.745601    
    905000   0.94049038    -0.00010935481 -35.782019     -36.720942    
    906000   0.96210437    -0.00010750421 -35.742275     -36.702776    
    907000   0.98060138     0.00053382863 -35.766672     -36.745639    
    908000   0.97990881     0.00086847999 -35.785627     -36.763903    
    909000   1.0071956     -0.00020270555 -35.656366     -36.661883    
    910000   1.0299568      0.00050934768 -35.687617     -36.715857    
    911000   0.99263815     0.00064271145 -35.738654     -36.729638    
    912000   0.9673134      0.00021358313 -35.749223     -36.714924    
    913000   1.0886308      0.00093257277 -35.629704     -36.716521    
    914000   0.96720212    -3.3178292e-05 -35.738629     -36.70422     
    915000   1.0952639      0.0010170894  -35.6302       -36.723639    
    916000   0.97429913     7.7950007e-05 -35.726119     -36.698794    
    917000   1.011299      -0.00018331144 -35.670851     -36.680465    
    918000   1.016574       0.00067260913 -35.714836     -36.729716    
    919000   0.98901751     5.3926379e-06 -35.718575     -36.705944    
    920000   0.96642518    -0.00025576933 -35.721964     -36.686779    
    921000   1.0340405      0.00068469759 -35.697576     -36.729893    
    922000   1.0345687      0.0003919845  -35.678079     -36.710923    
    923000   1.0098433      0.00039657161 -35.710886     -36.719047    
    924000   0.97899944    -0.00088486189 -35.65325      -36.630618    
    925000   0.9389717      1.0860885e-05 -35.788883     -36.72629     
    926000   1.0225974      0.00068487213 -35.712877     -36.73377     
    927000   1.0597344      0.00050925199 -35.650453     -36.708422    
    928000   1.0205691     -0.00036964372 -35.639627     -36.658495    
    929000   0.95628586    -5.9526138e-05 -35.754467     -36.709159    
    930000   0.98689143     0.00035834244 -35.75345      -36.738697    
    931000   0.96777959    -9.0169672e-06 -35.749197     -36.715364    
    932000   0.98135487    -0.00065003164 -35.676419     -36.656138    
    933000   1.0266399      0.0001488785  -35.660018     -36.684947    
    934000   1.0052547      0.00047828702 -35.72848      -36.732059    
    935000   0.94725308     9.3329216e-05 -35.781335     -36.727009    
    936000   1.015129       0.00012762652 -35.685293     -36.698731    
    937000   0.96213806    -0.00066589009 -35.697824     -36.658358    
    938000   1.0189747      0.00063749254 -35.706388     -36.723664    
    939000   0.92667318    -5.3063829e-05 -35.794367     -36.719496    
    940000   1.0450387      0.00089752253 -35.697328     -36.740625    
    941000   1.0798299      0.00091355492 -36.835029     -37.91306     
    942000   0.99418753     0.00036353344 -36.919648     -37.912179    
    943000   1.0621328     -0.00016049808 -36.782965     -37.843327    
    944000   1.0497222      0.00078634877 -36.845023     -37.892996    
    945000   1.009405       0.00055227566 -36.913326     -37.921049    
    946000   0.95152804    -0.00071990772 -36.891104     -37.841046    
    947000   1.0106591     -1.3197339e-05 -36.859758     -37.868732    
    948000   1.0108551      0.00028548472 -36.869952     -37.879123    
    949000   0.96744936     0.00055430205 -36.969432     -37.935269    
    950000   0.98046022     0.00042625437 -36.94498      -37.923806    
    951000   1.0468257      0.00087599489 -36.888909     -37.93399     
    952000   1.0154507     -6.025038e-05  -36.844898     -37.858656    
    953000   1.0454705     -5.8663629e-05 -36.817417     -37.861145    
    954000   0.96908508     0.00030050409 -36.955732     -37.923202    
    955000   1.0204551      0.00019344156 -36.869597     -37.888352    
    956000   0.92941101     0.00012138846 -36.993149     -37.921011    
    957000   1.0889956      0.0011511937  -36.833995     -37.921176    
    958000   0.94568253    -8.5913974e-05 -36.964438     -37.908545    
    959000   1.0800313      0.00075390244 -36.813921     -37.892152    
    960000   0.97699259     8.6325097e-05 -36.912378     -37.887742    
    961000   0.9811745      0.00020536422 -36.918945     -37.898484    
    962000   0.98803329    -2.1986695e-05 -36.899954     -37.886341    
    963000   1.0301051      0.00024074122 -36.849994     -37.878383    
    964000   0.98480295     0.00058751889 -36.944503     -37.927665    
    965000   0.96118044     0.00036429859 -36.963291     -37.922869    
    966000   0.96489527     0.00056078165 -36.969637     -37.932924    
    967000   0.92628485    -0.00049531946 -36.939445     -37.864186    
    968000   0.9937094     -7.0548794e-05 -36.884476     -37.876529    
    969000   1.0162023     -0.00028994454 -36.837645     -37.852154    
    970000   1.0300066      0.00016078317 -36.851112     -37.879402    
    971000   0.97041383     0.0001931207  -36.940021     -37.908818    
    972000   0.9933106      0.00029075329 -36.92138      -37.913035    
    973000   1.0487432      0.00086393314 -36.881382     -37.928377    
    974000   1.0267509      0.00023118867 -36.869328     -37.894368    
    975000   1.0515133      0.00066349456 -36.853494     -37.903255    
    976000   1.0217365      0.00070417745 -36.889524     -37.909558    
    977000   0.98722876     0.00035215838 -36.924193     -37.909776    
    978000   0.93679981     0.00015695187 -36.982295     -37.917534    
    979000   1.0288576      0.00037912232 -36.858358     -37.885501    
    980000   1.029022       0.00063686553 -36.881936     -37.909243    
    981000   1.0125314      0.00020973151 -36.875783     -37.886627    
    982000   0.91042334    -0.00095914387 -36.928025     -37.836931    
    983000   1.0738291      0.00084227307 -36.838726     -37.910765    
    984000   0.99761202     0.0001976485  -36.889893     -37.885843    
    985000   0.9409904     -0.00086359234 -36.907768     -37.84719     
    986000   1.0111447     -5.2948743e-05 -36.869335     -37.878795    
    987000   0.94375786    -5.4961704e-05 -36.95485      -37.897034    
    988000   1.0451716      0.001030509   -36.891771     -37.935201    
    989000   1.0768007      0.00024975927 -36.780749     -37.855755    
    990000   1.0321266      0.00057857737 -36.869259     -37.899665    
    991000   0.98112096    -0.00020162281 -36.885041     -37.864527    
    992000   1.0141618      0.00019059689 -36.879841     -37.892312    
    993000   0.95034224     7.9332168e-05 -36.959293     -37.908052    
    994000   0.98724113     0.00038889065 -36.926794     -37.91239     
    995000   1.0398087      0.0004645548  -36.86001      -37.898085    
    996000   0.99713904     0.00043424851 -36.915302     -37.910779    
    997000   1.0466958      0.00065720815 -36.857705     -37.902656    
    998000   0.94342533    -0.00039971003 -36.931537     -37.87339     
    999000   1.0105873     -0.00082657132 -36.8112       -37.820103    
   1000000   1.0118979      0.00032383956 -36.878351     -37.888562    
Loop time of 106.913 on 1 procs for 1000000 steps with 600 atoms

Performance: 8081309.777 tau/day, 9353.368 timesteps/s
99.0% CPU use with 1 MPI tasks x no OpenMP threads

MPI task timing breakdown:
Section |  min time  |  avg time  |  max time  |%varavg| %total
---------------------------------------------------------------
Pair    | 77.44      | 77.44      | 77.44      |   0.0 | 72.43
Bond    | 0.045086   | 0.045086   | 0.045086   |   0.0 |  0.04
Neigh   | 12.905     | 12.905     | 12.905     |   0.0 | 12.07
Comm    | 0.97914    | 0.97914    | 0.97914    |   0.0 |  0.92
Output  | 0.53605    | 0.53605    | 0.53605    |   0.0 |  0.50
Modify  | 13.033     | 13.033     | 13.033     |   0.0 | 12.19
Other   |            | 1.975      |            |       |  1.85

Nlocal:            600 ave         600 max         600 min
Histogram: 1 0 0 0 0 0 0 0 0 0
Nghost:             50 ave          50 max          50 min
Histogram: 1 0 0 0 0 0 0 0 0 0
Neighs:           8596 ave        8596 max        8596 min
Histogram: 1 0 0 0 0 0 0 0 0 0

Total # of neighbors = 8596
Ave neighs/atom = 14.326667
Ave special neighs/atom = 0
Neighbor list builds = 219872
Dangerous builds = 0
Total wall time: 0:01:46
