fix fLANG all langevin 1.0 1.0 1.0 100
neigh_modify exclude molecule/intra all
fix rigidNVE linked_vesicle rigid/nve molecule
  40 rigid bodies with 200 atoms
fix NVE synapsin nve 1.0 1.0 1.0

    ##======================================##
    ## Output
    ##======================================##

thermo 1000
thermo_style custom step temp press etotal epair
thermo_modify flush yes
timestep 0.01

    ##======================================##
    ## Equilibration before output
    ##======================================##


    ##======================================##
    ## Run with output
    ##======================================##

fix enforce_2d all enforce2d
dump 2 all custom 1000 Results_eps_attr6_eps_rep1_eps_rep_weak1_range2_attr_with_repFalse_n_synapsin400_n_vesicles40/Movie_2d_eps_attr6_eps_rep1_eps_rep_weak1_range2_attr_with_repFalse_n_synapsin400_n_vesicles40.xyz id type mol x y z
run 1000000
Generated 0 of 3 mixed pair_coeff terms from geometric mixing rule
Neighbor list info ...
  update every 1 steps, delay 1 steps, check yes
  max neighbors/atom: 2000, page size: 100000
  master list distance cutoff = 11.52462
  ghost atom cutoff = 11.52462
  binsize = 5.7623102, bins = 109 109 1
  1 neighbor lists, perpetual/occasional/extra = 1 0 0
  (1) pair cosine/squared, perpetual
      attributes: half, newton on
      pair build: half/bin/newton
      stencil: half/bin/2d
      bin: standard
Per MPI rank memory allocation (min/avg/max) = 8.574 | 8.574 | 8.574 Mbytes
   Step          Temp          Press          TotEng         E_pair    
         0   0.98523346     0.043298159    0.7537036      0            
      1000   1.0773219      0.00013133882  0.80530765    -0.018843593  
      2000   1.0521697      0.0024596219   0.76651722    -0.03839261   
      3000   1.094529       0.0015208611   0.76129309    -0.076021595  
      4000   1.0253333      0.0011103586   0.69647535    -0.087904613  
      5000   1.0678709      0.0011628419   0.6890616     -0.12785968   
      6000   0.97522866     0.0012191543   0.63508394    -0.11096599   
      7000   0.99890921    -0.00037357993  0.64756147    -0.11660408   
      8000   0.93089944     0.0011997264   0.56996662    -0.14217145   
      9000   1.0204526      0.00059067007  0.62247177    -0.15817448   
     10000   0.93672764     0.00073819506  0.5644423     -0.15215434   
     11000   0.98843492     0.0010731236   0.60285703    -0.15329569   
     12000   1.0378306      0.0018370194   0.62182064    -0.17211975   
     13000   1.0058477      0.00078509838  0.57759435    -0.19187913   
     14000   0.87176311     0.0012582433   0.46826716    -0.19863161   
     15000   1.0232842      0.0018714394   0.57181641    -0.21099604   
     16000   0.98033239     0.0014158865   0.56409753    -0.18585675   
     17000   1.0649868      0.0019905443   0.58680189    -0.22791298   
     18000   0.92346516     0.0013244965   0.47898955    -0.2274613    
     19000   1.0083697      0.00076490941  0.5469561     -0.22444671   
     20000   1.063129       0.0013551331   0.57663201    -0.23666164   
     21000   1.0073692      0.0020073225   0.50111049    -0.26952696   
     22000   1.0769146      0.00095218384  0.57939596    -0.24444369   
     23000   0.97117859     0.0022691004   0.43830137    -0.30465025   
     24000   1.0844465      0.0015684018   0.56760794    -0.2619936    
     25000   1.0267611      0.0010227644   0.50783655    -0.27763566   
     26000   1.0604725      0.0008988159   0.50935669    -0.30190479   
     27000   0.90632865     0.0018048688   0.37189858    -0.32144284   
     28000   0.92257994     0.00087338004  0.34636128    -0.35941237   
     29000   1.0023543      0.00068235718  0.37487812    -0.39192295   
     30000   0.96504667     0.001892667    0.36250528    -0.37575542   
     31000   1.026419       0.0013759551   0.42162441    -0.36358609   
     32000   1.011775       0.00052964296  0.40867714    -0.36533073   
     33000   0.92254909    -0.00042785716  0.33842218    -0.36732788   
     34000   1.0559172     -0.00037571585  0.44233585    -0.36544078   
     35000   1.0487589      0.0010765957   0.43102164    -0.3712789    
     36000   0.92173685     0.000437013    0.30955184    -0.39557685   
     37000   0.97894318     0.0013686312   0.35399572    -0.39489581   
     38000   0.94228624     0.002604147    0.35267328    -0.36817569   
     39000   0.97262283     0.00031757606  0.3373581     -0.40669836   
     40000   0.86723017     0.00098308166  0.28843851    -0.37499256   
     41000   1.0258822      0.0010319343   0.35658078    -0.4282191    
     42000   0.9533548     -7.3008744e-05  0.25928414    -0.47003228   
     43000   1.0117617      0.0011976987   0.2894322     -0.48456546   
     44000   0.9217496      0.0011392416   0.23852438    -0.46661406   
     45000   0.99280167     0.0016668119   0.29579104    -0.46370224   
     46000   1.0033505      0.0016834076   0.30414484    -0.46341828   
     47000   0.94899113     0.0012301435   0.24605555    -0.47992266   
     48000   0.99395301     0.001418314    0.28147128    -0.47890277   
     49000   0.98890749     0.0010345289   0.23993837    -0.51657587   
     50000   1.0944395      0.00056319196  0.29060379    -0.5466424    
     51000   0.92236753     0.001920103    0.16434523    -0.54126594   
     52000   0.96199993     0.00016927228  0.1714094     -0.56452055   
     53000   1.0873428      0.00025148679  0.30963136    -0.52218586   
     54000   1.0788194      0.0015939698   0.29555635    -0.52974047   
     55000   1.0301118      0.00042998182  0.27224762    -0.51578787   
     56000   0.96609881     0.00059994192  0.23201794    -0.50704766   
     57000   1.0570417      0.0024762359   0.31242413    -0.49621274   
     58000   0.95619173     0.0017080658   0.19952255    -0.53196412   
     59000   1.0574933      0.0015097258   0.24880948    -0.56017288   
     60000   0.94020692     0.0017320099   0.1768553     -0.54240299   
     61000   0.89723518     0.0017250922   0.13707598    -0.54930894   
     62000   1.0500675      0.0020288479   0.21884255    -0.58445908   
     63000   0.98564684     0.00069014139  0.16851758    -0.58550225   
     64000   0.99057005     0.00074232124  0.14053693    -0.61724916   
     65000   1.0508552      0.001083885    0.19543846    -0.60846577   
     66000   0.96155546     0.00010037375  0.084010071   -0.65157985   
     67000   1.0228686      0.0025302031   0.17879287    -0.60370162   
     68000   1.0493505      0.00058379882  0.19450729    -0.60824587   
     69000   1.0090837      0.0001701742   0.15157898    -0.62037007   
     70000   0.955807       0.00030485455  0.10908888    -0.62210348   
     71000   1.0162037      0.0019162969   0.16974959    -0.60764623   
     72000   1.067235       0.0012527237   0.20031539    -0.6161194    
     73000   0.96672092     0.00090155454  0.088854108   -0.6506874    
     74000   0.94631989     9.0699523e-05  0.062075262   -0.66185946   
     75000   1.0103985      0.0011655189   0.13448945    -0.63846541   
     76000   1.0828554      0.0014715563   0.15936609    -0.66901832   
     77000   1.1208035      0.0014435554   0.2273315     -0.63008314   
     78000   0.99781595     0.0015249622   0.10161242    -0.66171679   
     79000   1.039701       0.0013952963   0.19007526    -0.60529597   
     80000   1.0955698      0.0021495841   0.20709396    -0.63101692   
     81000   0.98201156     0.0025774094   0.1505825     -0.60065634   
     82000   0.97203351     0.0001800463   0.11336997    -0.63023567   
     83000   0.98947117    -0.0020736986   0.10159019    -0.65535526   
     84000   0.9408918      0.00056499406  0.049370147   -0.67041208   
     85000   1.0534678     -0.00082249983  0.15298405    -0.65291878   
     86000   1.0371664      0.0010043401   0.12872935    -0.66470297   
     87000   0.93646943     0.00059572499  0.058603361   -0.65779575   
     88000   0.97766791     0.00045049416  0.12107768    -0.62683827   
     89000   0.98528794     0.0012507188   0.12287448    -0.63087079   
     90000   0.99059113    -0.0013866027   0.10097997    -0.65682224   
     91000   0.97307432     0.00030225737  0.093769174   -0.65063268   
     92000   1.1234674      0.0010434216   0.2047824     -0.65467018   
     93000   0.95107081    -0.00030038093  0.061990072   -0.66557909   
     94000   1.047345       0.0022959289   0.13161553    -0.66960337   
     95000   0.95819005     0.0020741767   0.089746887   -0.6432685    
     96000   1.0230089     -0.0010309637   0.11695943    -0.6656424    
     97000   0.95391747     0.0021640712   0.049615186   -0.68013168   
     98000   0.97048606    -0.00026399206  0.054990243   -0.68743159   
     99000   1.052136       0.0016765669   0.13692005    -0.66796398   
    100000   0.92943558     0.00017711302  0.072035123   -0.6389831    
    101000   1.0036981      0.0024137411   0.11897687    -0.64885216   
    102000   0.97133941     0.0031740305   0.10089047    -0.64218418   
    103000   1.0079981      0.0021544944   0.10750138    -0.66361719   
    104000   0.9295052      0.00070345111  0.043706902   -0.66736457   
    105000   0.99531879    -0.00040865912  0.099321063   -0.66209781   
    106000   0.97865005    -0.00031222671  0.080037259   -0.66863003   
    107000   1.0901285      0.0020534417   0.13872678    -0.69522151   
    108000   0.99340652    -0.00090127841  0.023746011   -0.73620998   
    109000   1.0480133      0.0021170664   0.046737588   -0.75499261   
    110000   1.0072317     -0.00010673672  0.019752305   -0.75077994   
    111000   0.96310464     0.0010617838   0.011499213   -0.72527584   
    112000   1.0579514     -0.0013733229   0.057625223   -0.75170758   
    113000   0.97778322     0.00048797167  0.013831244   -0.73417292   
    114000   0.97966429     0.0012430593   0.0092282233  -0.74021496   
    115000   1.0320383      0.0019078527   0.022352904   -0.76715642   
    116000   0.93650715    -2.3778508e-05 -0.075784989   -0.79221296   
    117000   0.95313866     0.0010764996  -0.0042178954  -0.73336897   
    118000   0.98758075    -0.00097610955  0.047696707   -0.70780256   
    119000   0.97574536    -0.00094969065 -0.027644238   -0.77408944   
    120000   0.93776272     0.00097711788 -0.029087571   -0.74647605   
    121000   0.95290578     0.00036600047 -0.0076760989  -0.73664902   
    122000   0.96281513     0.0016044095   0.032648776   -0.7039048    
    123000   1.0826604      0.0019787335   0.12421987    -0.70401531   
    124000   0.98284982    -0.00074563424  0.058757909   -0.69312221   
    125000   0.98694091     0.00037929357  0.043251262   -0.71175854   
    126000   1.0884688      0.00075573636  0.14733378    -0.68534486   
    127000   0.94890347     0.00017658685  0.038874845   -0.68703631   
    128000   1.0445047     -0.00075948957  0.085732008   -0.71331411   
    129000   1.0491981      0.0013835538   0.08123842    -0.72139814   
    130000   0.9577668      0.0014069982   0.029482995   -0.70320861   
    131000   0.96393015     0.00064389344  0.077038541   -0.66036803   
    132000   0.986798       0.00020507961  0.084446738   -0.67045373   
    133000   1.01081        0.001135076    0.085707933   -0.68756173   
    134000   1.0868043      0.00010201446  0.11977549    -0.71162978   
    135000   0.97070075     0.0013134266   0.049256445   -0.69332963   
    136000   1.0044933      0.0011836268   0.036142242   -0.73229516   
    137000   0.92633864     0.00098313255 -0.034555869   -0.74320493   
    138000   1.0168942      0.001831473    0.10415859    -0.67376548   
    139000   1.0108651      0.0014105081   0.071387656   -0.70192412   
    140000   1.0139899      0.00093443584  0.076146515   -0.69955577   
    141000   1.0154883      0.0012408924   0.082298138   -0.6945504    
    142000   0.99320759     0.00097844339  0.066607076   -0.69319673   
    143000   0.96069751     0.0023533129   0.050688536   -0.68424506   
    144000   1.0107246      0.00057060146  0.13178042    -0.64142393   
    145000   0.9660422      0.0018666246   0.036451362   -0.70257092   
    146000   1.0213846      0.0017707019   0.073754017   -0.70760517   
    147000   1.0477079      0.002021949    0.10284529    -0.69865122   
    148000   0.96044669     0.0018053199  -0.009434784   -0.7441765    
    149000   0.95485687     0.001571718    0.038312265   -0.69215324   
    150000   1.0333031      0.0019881856   0.11293627    -0.67754063   
    151000   1.00647       -9.9748554e-05  0.10045678    -0.66949274   
    152000   1.025303       0.0012997812   0.13090159    -0.65345523   
    153000   1.0193142      0.0018330154   0.1185738     -0.66120154   
    154000   0.99984195     0.00080653347  0.06940545    -0.69547364   
    155000   0.98914687     0.0010187474   0.095970953   -0.6607264    
    156000   1.0535731      9.7247774e-06  0.13955396    -0.66642947   
    157000   1.0267572      0.0005792087   0.09029885    -0.6951704    
    158000   0.97686313     0.0012001364   0.04665534    -0.70064495   
    159000   0.97748847     0.00079696886  0.046914116   -0.70086456   
    160000   1.0133516      0.0003782677   0.09545263    -0.67976134   
    161000   0.97814123     0.00083647042  0.085988556   -0.66228949   
    162000   0.99306041     0.00096891507  0.057400685   -0.70229053   
    163000   0.94742242     0.0015544353   0.065019426   -0.65975872   
    164000   0.95470852     0.00045970252  0.03127048    -0.69908154   
    165000   0.92324349     0.0010399291   0.00086363086 -0.70541764   
    166000   1.0278761      0.0010088671   0.064643033   -0.72168217   
    167000   1.0436248      0.00010516454  0.10817144    -0.69020153   
    168000   1.0058743      0.0011781211   0.018123399   -0.75137043   
    169000   1.0275528      0.0016246188   0.056486456   -0.72959143   
    170000   0.98188107     0.00047974397  0.038478037   -0.71266098   
    171000   0.96180561     0.00097228649  0.0033147384  -0.73246655   
    172000   1.0754158      8.1455881e-05  0.088153149   -0.73453992   
    173000   0.96919713     0.00057153325  0.049242999   -0.6921928    
    174000   1.0215857     -0.00036237913  0.062456871   -0.71905615   
    175000   0.98400702     0.00043221092  0.036940724   -0.71582465   
    176000   1.0537189     -7.4544703e-05  0.076029116   -0.73006586   
    177000   1.0374057      0.00090086382  0.096076924   -0.69753844   
    178000   0.98961004     0.00010702511  0.040419408   -0.71663227   
    179000   1.06161        0.00088688298  0.10841766    -0.70371396   
    180000   1.0419202      0.0020038713   0.058153353   -0.73891563   
    181000   1.0184711      0.0016835682   0.033969875   -0.74516049   
    182000   1.0517298      0.0012306926   0.041962479   -0.76261079   
    183000   0.98500139     0.0032844085  -0.036591515   -0.79011758   
    184000   0.97034534     0.00030559468 -0.014970049   -0.75728424   
    185000   0.94996385     5.1757945e-05 -0.069942254   -0.7966646    
    186000   0.96246508     0.0010127366  -0.084137305   -0.82042309   
    187000   0.97814748     0.0011787184  -0.032962191   -0.78124501   
    188000   1.0049901      0.0008961873  -0.012100987   -0.78091842   
    189000   1.0143634     -0.00061334387 -0.019615322   -0.79560336   
    190000   1.0378701      0.0015470877  -0.071510596   -0.86548124   
    191000   1.0037643      0.00038918947 -0.067838309   -0.835718     
    192000   1.0632872      0.0010909695  -0.0065615328  -0.81997621   
    193000   0.98802402     0.0011215081  -0.049481344   -0.80531972   
    194000   0.9567638      0.0020252021  -0.086019317   -0.81794363   
    195000   1.0328027      0.00016554854  0.0089941481  -0.78109991   
    196000   0.94888527    -0.00021142309 -0.058758251   -0.78465548   
    197000   0.92419595    -0.00026510162 -0.06907412    -0.77608402   
    198000   1.0295286      0.0011273256   0.0014353443  -0.78615405   
    199000   1.0081459      0.0011841436  -0.0039077389  -0.77513934   
    200000   1.087393       0.0026365164   0.10651793    -0.72533772   
    201000   0.97112755     0.0017180385  -0.027013522   -0.7699261    
    202000   0.92323523     0.001248758   -0.074941602   -0.78121655   
    203000   1.0366394      0.00069124714  0.053572613   -0.73945651   
    204000   1.0136841      0.0017408657   0.045262228   -0.73020609   
    205000   0.96639045     0.0011751759  -0.019428114   -0.7587168    
    206000   0.97985704     0.0012765765  -0.026115845   -0.77570648   
    207000   0.95600913     0.0014739804  -0.032240325   -0.76358731   
    208000   0.93770598     0.00091238966 -0.11446731    -0.83181238   
    209000   1.0317605      0.0013710294  -0.027286809   -0.81658361   
    210000   1.0033885      0.00033536915 -0.046056609   -0.81364884   
    211000   0.92920453     0.0013967175  -0.15634848    -0.86718995   
    212000   1.0243071      0.00093900963 -0.055243515   -0.83883847   
    213000   0.934591       0.0015378248  -0.1485286     -0.86349071   
    214000   1.0208229     -0.00026679807 -0.016415497   -0.79734504   
    215000   1.1141558      0.00023267803  0.0091787494  -0.84315047   
    216000   0.95238273     0.00052964938 -0.10119235    -0.82976514   
    217000   1.0741495      0.0014289619   0.016306599   -0.80541777   
    218000   0.99944373     0.0023622599  -0.048211859   -0.81278631   
    219000   0.94940168     0.00091383353 -0.11758435    -0.84387663   
    220000   1.007431       0.0010161435  -0.020788681   -0.79147336   
    221000   0.98689258     0.0010275759  -0.056004414   -0.81097724   
    222000   1.043742       4.2107609e-05 -0.010635944   -0.80909859   
    223000   0.98015794     0.00026318729 -0.062526745   -0.81234757   
    224000   1.0618946      0.0013476329   0.024451019   -0.78789838   
    225000   0.95855666     0.00089001238 -0.052577583   -0.78587343   
    226000   1.0432266     -5.8216675e-05  0.026730156   -0.7713382    
    227000   1.0415478      0.00087061003  0.012535385   -0.78424869   
    228000   1.0394316      0.00057874616  0.015554662   -0.77961048   
    229000   1.0218755      0.00062200366 -0.0069857923  -0.78872056   
    230000   0.96876473     0.00026491565 -0.10597726    -0.84708228   
    231000   1.023435       0.0021399005  -0.034907185   -0.81783495   
    232000   1.06761        0.00075417652 -0.036697846   -0.85341946   
    233000   0.96611423     0.0015027322  -0.10961343    -0.84869082   
    234000   0.96663926     0.00048493892 -0.10772673    -0.84720576   
    235000   1.0224263     -0.00025951218 -0.0037800346  -0.78593618   
    236000   1.0252367      0.0019404904  -0.039457302   -0.82376335   
    237000   1.0482686      0.0014488751  -0.0047917781  -0.80671726   
    238000   1.1004954     -0.00035206154  0.10573277    -0.73614622   
    239000   0.96057469     0.001593293   -0.05728565    -0.79212528   
    240000   0.91182625     0.00087889826 -0.10090304    -0.79845013   
    241000   0.98659546     0.00072967772 -0.02404742    -0.77879295   
    242000   1.0220847      0.00143745    -0.021217829   -0.80311262   
    243000   1.026858       0.00083187446 -0.028081807   -0.81362816   
    244000   1.0136067      0.0014557965   0.0046319255  -0.7707772    
    245000   1.0317836      0.002670233   -0.02687653    -0.81619101   
    246000   1.0299743      0.00091043548 -0.046863518   -0.83479388   
    247000   1.0149341      0.0012181528  -0.012627983   -0.7890526    
    248000   0.96293966     0.00065729088 -0.077200978   -0.81384982   
    249000   0.99311233    -0.00029235403 -0.04444914    -0.80418007   
    250000   0.97572994     0.0015636081  -0.04790715    -0.79434055   
    251000   1.056333       0.0018071024   0.022475955   -0.78561882   
    252000   1.0939314     -0.00036681069  0.076581606   -0.76027592   
    253000   0.95936517     0.001322774   -0.060024917   -0.79393928   
    254000   0.92388794     0.000697429   -0.074660465   -0.78143474   
    255000   1.0357762      0.0027157943   0.0012999893  -0.79106879   
    256000   1.0555697      0.0024838203  -0.023297494   -0.83080833   
    257000   1.0106063      0.0021986971  -0.054575207   -0.82768903   
    258000   1.0634016      0.0027996919  -0.0040808351  -0.81758307   
    259000   0.96239708     0.0009943481  -0.10426886    -0.84050262   
    260000   1.023879       0.00033289907 -0.043063268   -0.82633073   
    261000   1.0946236      0.00020216052 -0.03854386    -0.87593091   
    262000   0.99942714     0.0015738181  -0.092271681   -0.85683345   
    263000   0.95165734     0.0010671096  -0.17622503    -0.90424289   
    264000   1.0348154      0.0017996024  -0.075425153   -0.86705894   
    265000   1.0375465      0.00090042518 -0.073422357   -0.86714543   
    266000   0.97355585     0.0015531167  -0.081094476   -0.8258647    
    267000   0.95315829     0.0012921731  -0.13998083    -0.86914692   
    268000   0.99541968     0.00010874227 -0.11229949    -0.87379554   
    269000   1.0470396      0.00011482551 -0.12654069    -0.92752598   
    270000   0.99679768     0.0027255344  -0.14687613    -0.90942636   
    271000   0.99027869     0.00080873079 -0.11821651    -0.87577971   
    272000   1.0267075      0.001702504   -0.073833763   -0.85926498   
    273000   1.0320327      0.00081566622 -0.055083832   -0.84458886   
    274000   0.98013224     0.00091098572 -0.10279146    -0.85259262   
    275000   1.0027256      0.00097892909 -0.069125286   -0.83621039   
    276000   1.0424237      0.0015363826  -0.043385257   -0.8408394    
    277000   1.0732884      0.0008882825   0.0025210503  -0.8185446    
    278000   1.0484686      0.00085919211 -0.043862419   -0.84594089   
    279000   0.96447846     0.00020342131 -0.072050056   -0.80987608   
    280000   0.97769111     1.9040851e-05 -0.093780837   -0.84171453   
    281000   0.99595987     0.0014135888  -0.11174734    -0.87365664   
    282000   1.0028956      0.00098751018 -0.12518356    -0.89239872   
    283000   0.9581666      0.0016042616  -0.12830262    -0.86130007   
    284000   1.1462154      0.00076335973 -0.023687147   -0.90054194   
    285000   1.0267511      0.0016348575  -0.1579203     -0.94338487   
    286000   1.0088473      0.00059612247 -0.20294828    -0.97471644   
    287000   0.99462263    -0.00018650488 -0.20864197    -0.96952828   
    288000   1.0722988      0.00094209193 -0.13375882    -0.95406741   
    289000   1.0543207      0.0015008353  -0.12465745    -0.9312128    
    290000   0.98287652     0.0013957571  -0.17093766    -0.92283819   
    291000   0.97705953     0.00095482088 -0.18424931    -0.93169985   
    292000   1.0751704      0.0013323766  -0.11571852    -0.93822389   
    293000   0.97052608     0.00033449429 -0.19231455    -0.93476699   
    294000   0.9939273      0.00025814747 -0.17699529    -0.93734968   
    295000   0.96202749     0.0013976809  -0.2085212     -0.94447223   
    296000   0.96522203     0.0010944638  -0.19456765    -0.93296251   
    297000   1.0518447      0.00081550156 -0.12520653    -0.92986773   
    298000   1.0225316      0.0014289548  -0.12301753    -0.90525422   
    299000   1.0744007      0.00057801904 -0.15986113    -0.98177767   
    300000   0.97050705     0.00097870469 -0.20424991    -0.9466878    
    301000   0.90318055    -0.00078667264 -0.23310771    -0.92404084   
    302000   0.93774658     0.00070520353 -0.253655      -0.97103113   
    303000   0.96503012     0.00098339285 -0.20043109    -0.93867913   
    304000   1.0500615      0.0005104109  -0.098858681   -0.90215571   
    305000   1.0417381      0.0015617268  -0.12618854    -0.92311817   
    306000   0.89902914     0.0008667254  -0.29976718    -0.98752447   
    307000   1.0508882      0.00058880213 -0.14778869    -0.95171819   
    308000   0.99938413     0.00021399322 -0.18892504    -0.95345389   
    309000   1.0138229      0.001247833   -0.24919346    -1.024768     
    310000   0.98678603    -0.00026887047 -0.24996649    -1.0048578    
    311000   1.0305777      0.0013449176  -0.20921151    -0.99760347   
    312000   0.98903842    -7.4746284e-05 -0.25386359    -1.010478     
    313000   0.94988459     0.0022843352  -0.30182933    -1.028491     
    314000   0.95032226     0.001002234   -0.30797206    -1.0349686    
    315000   0.92429579     0.0001362751  -0.29569378    -1.0027801    
    316000   1.0346826     -0.00069609693 -0.19232517    -0.98385735   
    317000   1.0162942      0.00086621913 -0.23730896    -1.014774     
    318000   0.98830044    -0.00038395106 -0.25436631    -1.0104161    
    319000   0.94126964     0.0012758231  -0.24729315    -0.96736442   
    320000   0.99223513    -0.00049811225 -0.21832126    -0.97738114   
    321000   1.004028       0.00053659035 -0.20545513    -0.97353657   
    322000   0.91940018     0.0015443297  -0.21454727    -0.91788841   
    323000   0.95863703     0.001686622   -0.19003821    -0.92339554   
    324000   1.1794926      0.00098357033 -0.038795623   -0.94110749   
    325000   0.99648986    -0.00026238333 -0.22425424    -0.98656898   
    326000   0.96566264     0.00026612404 -0.24015108    -0.978883     
    327000   0.99096272     0.0002194835  -0.22804486    -0.98613134   
    328000   1.0157752      0.00059178449 -0.18986872    -0.96693678   
    329000   0.99416806     0.0019258419  -0.15279864    -0.9133372    
    330000   0.90861579     0.0020661516  -0.25482471    -0.94991579   
    331000   0.99642228     0.0018028571  -0.20571098    -0.96797403   
    332000   1.0696132      0.00072975085 -0.17588911    -0.99414321   
    333000   1.0502004      0.00086106569 -0.19533767    -0.99874097   
    334000   1.0281379     -6.4693369e-05 -0.20106687    -0.98759235   
    335000   1.0312951      0.0020919163  -0.24332057    -1.0322613    
    336000   0.96750728     2.9543405e-05 -0.29083813    -1.0309812    
    337000   1.0128315      0.0018155258  -0.22880711    -1.0036232    
    338000   0.97367847     0.001439505   -0.25661928    -1.0014833    
    339000   0.99353978     0.00072067123 -0.23597773    -0.99603565   
    340000   1.0207286     -0.0011422281  -0.20190736    -0.98276478   
    341000   0.98101609     0.0011726803  -0.29096427    -1.0414416    
    342000   1.0218611      0.0005394824  -0.24245003    -1.0241738    
    343000   1.0767745      0.00032158803 -0.23119533    -1.0549278    
    344000   0.9739285     -2.1599673e-05 -0.2570909     -1.0021462    
    345000   1.0304612      0.00068392293 -0.21061218    -0.99891498   
    346000   1.0612719      0.0025174566  -0.18276431    -0.99463735   
    347000   0.96139229     0.0019154532  -0.27116061    -1.0066257    
    348000   1.010663       0.00061285962 -0.26129041    -1.0344476    
    349000   1.01031        0.0019721097  -0.23780174    -1.0106889    
    350000   1.0225029      0.0017124964  -0.25996593    -1.0421807    
    351000   1.0585668     -0.000117489   -0.23950117    -1.0493048    
    352000   1.0166067     -0.00027158902 -0.2789874     -1.0566915    
    353000   0.94460332     6.4892852e-05 -0.37940511    -1.1020266    
    354000   0.93353911     0.00032123321 -0.3611823     -1.0753397    
    355000   1.0463808      0.0015065141  -0.2426199     -1.0431012    
    356000   1.0036911      0.0013637044  -0.28619448    -1.0540182    
    357000   1.0209375      0.0019628434  -0.26515309    -1.0461703    
    358000   0.9952968     -0.00047703507 -0.28879816    -1.0502002    
    359000   0.99578718     0.00064474022 -0.24438274    -1.0061599    
    360000   0.95268386     0.001189613   -0.27979985    -1.008603     
    361000   1.0021414      0.00091704932 -0.2216122     -0.98825039   
    362000   0.98055337     0.0017214921  -0.27891931    -1.0290426    
    363000   0.96300311     0.001117582   -0.22236552    -0.95906289   
    364000   1.0530242      0.0019439317  -0.21963604    -1.0251996    
    365000   1.0515856      0.0012702568  -0.20918819    -1.0136511    
    366000   1.0174815      0.0029987825  -0.22539093    -1.0037643    
    367000   0.99577468     0.0012154459  -0.20679471    -0.96856233   
    368000   1.0126654     -0.00018984753 -0.20384453    -0.97853352   
    369000   0.94081404     0.0005046515  -0.26347241    -0.98319515   
    370000   0.96706062     0.0020723915  -0.22509549    -0.96489686   
    371000   0.98471381     0.0008559782  -0.18309622    -0.93640228   
    372000   1.0050043      0.00076522327 -0.22763094    -0.99645921   
    373000   1.0835433      0.0012851071  -0.1589996     -0.98791022   
    374000   1.0164945     -0.00028476785 -0.20579346    -0.98341175   
    375000   1.0217188      0.00073781955 -0.18116116    -0.96277604   
    376000   0.96363508     0.00023392361 -0.22438615    -0.96156699   
    377000   0.98045719     0.0019718835  -0.26019969    -1.0102494    
    378000   1.059211       0.0024007127  -0.19755701    -1.0078534    
    379000   0.98748031     0.0008012168  -0.32467169    -1.0800941    
    380000   0.97609961     0.00065752609 -0.332347      -1.0790632    
    381000   0.99188888     0.0017993066  -0.30420013    -1.0629951    
    382000   0.96327564     0.00086806998 -0.27620598    -1.0131118    
    383000   1.0391453      0.0013384459  -0.26864378    -1.0635899    
    384000   1.0178381      0.00026648552 -0.23980727    -1.0184534    
    385000   0.94674074     3.6271651e-06 -0.32660241    -1.0508591    
    386000   1.0124351      0.0011334108  -0.28108387    -1.0555967    
    387000   0.99303072    -0.00040597415 -0.31502974    -1.0746982    
    388000   1.0196482     -0.00017807487 -0.31197483    -1.0920057    
    389000   0.99867025     0.0015660882  -0.32949959    -1.0934823    
    390000   1.0359001     -7.6748644e-05 -0.32467896    -1.1171425    
    391000   1.0159381      4.4825961e-06 -0.3083975     -1.0855901    
    392000   1.0685834      0.0014450127  -0.23412701    -1.0515933    
    393000   0.96026363     0.00025133832 -0.35586573    -1.0904674    
    394000   0.95961714     0.00013188184 -0.31389183    -1.0479989    
    395000   0.98495157     0.0012737956  -0.30899434    -1.0624823    
    396000   1.0417539      0.00063199105 -0.27988464    -1.0768264    
    397000   0.90295845     0.0010321427  -0.37480484    -1.0655681    
    398000   0.9557204     -0.00065776751 -0.3203046     -1.0514307    
    399000   0.9067156      0.00094516685 -0.43743081    -1.1310682    
    400000   0.99352219    -0.00012077887 -0.35903657    -1.119081     
    401000   1.0021272      0.00052297733 -0.31090247    -1.0775298    
    402000   1.0020796      0.00074617825 -0.32594107    -1.0925319    
    403000   0.99410439     0.0015516073  -0.34820987    -1.1086997    
    404000   1.0779441      0.0013241721  -0.25033561    -1.0749629    
    405000   0.98486167     0.0025839499  -0.32930536    -1.0827245    
    406000   1.0280055     -0.00030056603 -0.25744933    -1.0438735    
    407000   0.99668913    -8.1243411e-05 -0.25904744    -1.0215146    
    408000   1.0322708      0.0010551358  -0.24985843    -1.0395456    
    409000   0.90515017     0.001710522   -0.32612507    -1.0185649    
    410000   1.0044466      0.00031773049 -0.28084608    -1.0492477    
    411000   0.98508555     0.0011986569  -0.29523661    -1.0488271    
    412000   1.0583484      0.0011198313  -0.20747897    -1.0171155    
    413000   1.0395742      6.5783564e-05 -0.21949846    -1.0147727    
    414000   1.1022079      0.00065285232 -0.18871677    -1.0319058    
    415000   0.98456452     0.0011215535  -0.2683957     -1.0215876    
    416000   1.0579578      0.001243816   -0.19427009    -1.0036078    
    417000   0.97841176     0.00082861925 -0.29601182    -1.0444968    
    418000   1.093349      -0.0011298828  -0.20004281    -1.0364548    
    419000   1.0104876      0.0021912462  -0.25641602    -1.0294391    
    420000   1.0417147      0.00085425526 -0.25288942    -1.0498012    
    421000   1.0460341      0.0012808059  -0.21157585    -1.0117919    
    422000   1.0043414      0.00092426176 -0.25268833    -1.0210095    
    423000   1.0418102      0.0014882819  -0.24540439    -1.0423892    
    424000   0.91954133    -4.6368938e-05 -0.32474622    -1.0281953    
    425000   1.0068506      0.0011425788  -0.27522824    -1.0454689    
    426000   1.0006269      0.00058242923 -0.27128679    -1.0367663    
    427000   1.039935       0.0017789455  -0.24805696    -1.0436073    
    428000   1.0084601     -0.00013531474 -0.29543664    -1.0669086    
    429000   0.96374354     0.00082692415 -0.33600135    -1.0732652    
    430000   0.96077392     0.00066074448 -0.28735794    -1.02235      
    431000   0.9832742      0.0012859469  -0.30497888    -1.0571836    
    432000   0.97998754    -0.00021246361 -0.31240207    -1.0620925    
    433000   1.0058436      0.00072526363 -0.27484557    -1.0443159    
    434000   1.0188754      0.00028125708 -0.25249046    -1.0319301    
    435000   1.0836049      0.0011570193  -0.19978961    -1.0287474    
    436000   1.034777       0.00030079365 -0.17066061    -0.96226505   
    437000   0.9948402     -0.0007624418  -0.28224037    -1.0432931    
    438000   0.98851457     0.001636466   -0.23078296    -0.9869966    
    439000   1.0730228      0.0017123025  -0.16579724    -0.98665967   
    440000   0.9660324     -0.00023112331 -0.21782963    -0.95684442   
    441000   0.99990894     0.00029537798 -0.17003616    -0.9349665    
    442000   0.98067569     0.00059671272 -0.24413514    -0.99435204   
    443000   0.99053292     0.00084192421 -0.20212968    -0.95988737   
    444000   1.0204714      0.0013948274  -0.24178811    -1.0224487    
    445000   1.0677773      0.00077429821 -0.20589386    -1.0227435    
    446000   0.94795268     0.00022330937 -0.28157595    -1.0067598    
    447000   1.0138541      0.0010334654  -0.22972878    -1.0053272    
    448000   0.99890229    -0.00023981638 -0.29737454    -1.0615348    
    449000   1.0165664      0.0021014439  -0.31522978    -1.0929031    
    450000   0.95034806    -0.00028494087 -0.34388791    -1.0709042    
    451000   1.0292756      0.0013522735  -0.28034017    -1.067736     
    452000   1.0245742      0.0013691775  -0.32493005    -1.1087293    
    453000   0.98128705     0.0013984656  -0.36023477    -1.1109194    
    454000   1.0239377      0.0017161803  -0.31154416    -1.0948565    
    455000   1.0524743      0.0008775446  -0.30163893    -1.1067818    
    456000   0.98619526     0.001840317   -0.35117769    -1.1056171    
    457000   1.0813433      0.0016268656  -0.33947748    -1.1667051    
    458000   1.0286959      0.0014727516  -0.37933287    -1.1662852    
    459000   0.9643994      0.00051141616 -0.40688207    -1.1446476    
    460000   1.0340978      0.0018809143  -0.35872341    -1.1498082    
    461000   1.0632518      0.0024713431  -0.34082383    -1.1542115    
    462000   0.98414039     0.0014462115  -0.42144805    -1.1743154    
    463000   1.0183651      0.00030148252 -0.38550792    -1.1645572    
    464000   1.0003275      0.00098511649 -0.39396125    -1.1592118    
    465000   1.0444791      0.0010327624  -0.29632224    -1.0953487    
    466000   0.97487955     0.0020025824  -0.41734887    -1.1631317    
    467000   0.96786656     0.00080979858 -0.41343458    -1.1538525    
    468000   1.0406768      0.0015745389  -0.37582828    -1.171946     
    469000   0.90289185     0.0003479455  -0.43789937    -1.1286116    
    470000   1.0520805      0.00047457721 -0.34180376    -1.1466453    
    471000   1.049728       0.0029280469  -0.37139147    -1.1744334    
    472000   1.1024815      0.0010829491  -0.29382416    -1.1372225    
    473000   1.0436678     -0.00019760543 -0.38496939    -1.1833752    
    474000   1.0414923      0.00070494043 -0.41367054    -1.2104121    
    475000   1.0408171      1.4324095e-05 -0.40930547    -1.2055305    
    476000   1.0359655      0.00043031791 -0.37463544    -1.167149     
    477000   1.0007517      0.0016211976  -0.42134969    -1.1869247    
    478000   0.97500347     0.0016247852  -0.41957696    -1.1654546    
    479000   0.94806169     0.00060899537 -0.4031563     -1.1284235    
    480000   1.0047197      0.0014961449  -0.35924826    -1.1278588    
    481000   0.98313353     0.00099202255 -0.38337276    -1.1354699    
    482000   1.0014006      0.00062813564 -0.35711272    -1.1231842    
    483000   0.98924962     0.0015033017  -0.38309278    -1.1398687    
    484000   0.99262124     0.0014003939  -0.36740861    -1.1267639    
    485000   0.96343553     0.00089409862 -0.39958946    -1.1366176    
    486000   1.0641711      0.0018767146  -0.33497646    -1.1490673    
    487000   1.0070573      0.0022063885  -0.34195115    -1.11235      
    488000   0.9825096      0.002838845   -0.35428095    -1.1059008    
    489000   0.96045327     0.0018954826  -0.32097375    -1.0557205    
    490000   1.02413       -1.9338099e-05 -0.31296784    -1.0964273    
    491000   0.96903614     0.0020734512  -0.28656783    -1.0278805    
    492000   0.99215418     0.00091424515 -0.34152928    -1.1005272    
    493000   0.98671542    -6.3884523e-06 -0.31598734    -1.0708246    
    494000   0.97320843     0.0016734385  -0.35984605    -1.1043505    
    495000   0.96524333     0.00090938277 -0.3962858     -1.134697     
    496000   1.0015228      0.00014530221 -0.35506131    -1.1212263    
    497000   0.93515778     0.00022402619 -0.35075009    -1.0661458    
    498000   1.0855781     -0.0002501978  -0.22892721    -1.0593944    
    499000   0.99582732     0.0013330305  -0.33660937    -1.0984173    
    500000   1.0338449     -0.00022923388 -0.29052291    -1.0814142    
    501000   1.0064685      0.00087950712 -0.32065446    -1.0906028    
    502000   1.0315778     -0.00020957768 -0.30716571    -1.0963227    
    503000   1.0191268      0.00079472487 -0.29923142    -1.0788634    
    504000   1.072452      -0.0001151747  -0.32985474    -1.1502805    
    505000   1.0271874     -0.00056259123 -0.33398157    -1.1197799    
    506000   0.94990852     0.0014023164  -0.43158678    -1.1582668    
    507000   0.93023662     0.00067231451 -0.42891004    -1.1405411    
    508000   1.0100185     -0.00038944933 -0.36752623    -1.1401904    
    509000   0.96758864     0.001482307   -0.38884257    -1.1290479    
    510000   0.9209789     -0.00062567314 -0.47521292    -1.1797618    
    511000   1.0512616      0.0012403127  -0.41457503    -1.2187901    
    512000   0.94693178     5.0874643e-05 -0.51847242    -1.2428752    
    513000   1.0559073      0.001690626   -0.37600191    -1.183771     
    514000   1.0289325      0.00087800196 -0.39880944    -1.1859428    
    515000   1.0470957      0.002232031   -0.40072472    -1.2017529    
    516000   1.0342724      0.0016069322  -0.42219413    -1.2134125    
    517000   1.0222987      0.00039128424 -0.39490148    -1.17696      
    518000   0.96380121     0.0016982582  -0.45336174    -1.1906697    
    519000   1.0086496     -0.00089203037 -0.39935916    -1.1709761    
    520000   1.0715799      0.00025242181 -0.30973364    -1.1294922    
    521000   0.97677967     0.0017132504  -0.36228813    -1.1095246    
    522000   1.0055354     -0.00091781445 -0.31911706    -1.0883517    
    523000   0.95063793     0.0012868471  -0.41611523    -1.1433532    
    524000   0.97663611    -0.00044597727 -0.42621977    -1.1733464    
    525000   1.010276      -0.00076594894 -0.37321859    -1.1460797    
    526000   1.0574219     -0.00074757926 -0.36183591    -1.1707637    
    527000   0.95133227    -0.0010216403  -0.49573165    -1.2235008    
    528000   0.97596658     0.00083562054 -0.48208092    -1.2286954    
    529000   1.0430667      0.0019146086  -0.42640248    -1.2243485    
    530000   0.96731429     0.00049598941 -0.44691451    -1.1869099    
    531000   1.0863729      0.00052991556 -0.38039695    -1.2114723    
    532000   1.0110933      0.00097001963 -0.42376084    -1.1972472    
    533000   0.91968211    -0.0010259028  -0.48167389    -1.1852307    
    534000   0.99732215    -0.00022549876 -0.45029095    -1.2132424    
    535000   1.0051455      0.0014862411  -0.46447255    -1.2334089    
    536000   0.97794585     0.0013098539  -0.49154904    -1.2396776    
    537000   1.0338051      0.00043712489 -0.45268347    -1.2435443    
    538000   1.023821       0.00079494681 -0.44618077    -1.2294038    
    539000   1.0906124      0.0018091749  -0.4366666     -1.2709851    
    540000   0.9976743      0.00085545474 -0.56664862    -1.3298695    
    541000   0.93234165     0.0014701924  -0.57604258    -1.2892839    
    542000   0.99109696     0.0021556506  -0.50954084    -1.26773      
    543000   0.96331433     0.00056941782 -0.53544121    -1.2723767    
    544000   1.0522259      0.00024289838 -0.42122785    -1.2261806    
    545000   1.0005163     -8.0115575e-05 -0.49671493    -1.2621099    
    546000   0.9086976      0.0018184247  -0.52951046    -1.2246641    
    547000   0.9922209      0.0010586275  -0.42589602    -1.184945     
    548000   1.0026336      0.00033287262 -0.47006387    -1.2370785    
    549000   1.0798356      0.00058651619 -0.36722532    -1.1932996    
    550000   1.0736168      0.0013222485  -0.40599152    -1.2273084    
    551000   1.0116164      0.00036272735 -0.47638698    -1.2502735    
    552000   1.0145529     -0.0014178504  -0.4497295     -1.2258625    
    553000   1.0795212      0.00068203675 -0.40689299    -1.2327267    
    554000   1.0341981     -3.5854864e-05 -0.51644493    -1.3076064    
    555000   0.99177611     0.00046669319 -0.53980001    -1.2985087    
    556000   0.98629616     0.00146537    -0.57125178    -1.3257683    
    557000   0.97965918     0.00094110844 -0.54312317    -1.2925624    
    558000   0.91984297    -0.00032811118 -0.59214864    -1.2958285    
    559000   1.0062133     -8.081536e-05  -0.53449171    -1.3042449    
    560000   1.0365377      0.0012857817  -0.52550552    -1.3184568    
    561000   0.95513855     0.00088196981 -0.57815695    -1.3088379    
    562000   0.99975576     0.00025206171 -0.56421966    -1.3290328    
    563000   0.98227549    -0.00047074187 -0.58936264    -1.3408034    
    564000   1.1077167      0.0014613152  -0.42059778    -1.268001     
    565000   1.0057759     -0.00082888135 -0.56659801    -1.3360166    
    566000   0.99340041     0.0017382593  -0.57940745    -1.3393588    
    567000   1.0055439      0.0014180677  -0.60157283    -1.3708139    
    568000   0.91311578     0.0021591262  -0.64431129    -1.3428449    
    569000   1.0164903      0.00061404027 -0.54686033    -1.3244754    
    570000   0.91355772     0.000232847   -0.62838601    -1.3272577    
    571000   0.94245449     0.00050238024 -0.6365969     -1.3575746    
    572000   1.0626648     -0.0001365398  -0.57456176    -1.3875003    
    573000   0.98539979     0.00098480911 -0.62167766    -1.3755085    
    574000   0.94899358    -2.0712076e-05 -0.65358669    -1.3795668    
    575000   0.98882178     0.00097556126 -0.62313356    -1.3795822    
    576000   1.0613335      0.00066709487 -0.54234635    -1.3542665    
    577000   1.0459892      0.00080460193 -0.55690204    -1.3570838    
    578000   0.97541319     0.00013616829 -0.60911766    -1.3553088    
    579000   1.000848       0.00011055681 -0.57841881    -1.3440675    
    580000   1.0237527      0.0020339471  -0.56395147    -1.3471223    
    581000   1.0615237      0.0016568554  -0.54928646    -1.3613521    
    582000   1.0047199     -0.00018367367 -0.6088295     -1.3774402    
    583000   0.96682804     0.0020494253  -0.6410141     -1.3806376    
    584000   1.0135527      0.0010063751  -0.63024138    -1.4056092    
    585000   1.055336       0.0010541439  -0.55116455    -1.3584966    
    586000   1.0171758      0.00039785583 -0.65478197    -1.4329214    
    587000   1.0499682      0.0017566668  -0.62682832    -1.430054     
    588000   1.0427469      0.00028203771 -0.60255568    -1.400257     
    589000   0.92380769     0.001737263   -0.67985205    -1.3865649    
    590000   0.94129108     0.0016929955  -0.6719042     -1.3919919    
    591000   0.99912372     0.00062565379 -0.63652374    -1.4008534    
    592000   1.0206942      0.001166292   -0.60289727    -1.3837283    
    593000   0.96447672     0.0012491235  -0.66875756    -1.4065822    
    594000   1.0633873     -0.00076509934 -0.5455348     -1.3590261    
    595000   1.0642095      0.00046618667 -0.55889507    -1.3730153    
    596000   0.96894656     0.00020208807 -0.61504961    -1.3562937    
    597000   0.93298246     0.00091849386 -0.65120607    -1.3649377    
    598000   0.99070556     0.0017272393  -0.63329938    -1.3911891    
    599000   1.0459913      0.00094314979 -0.64396795    -1.4441513    
    600000   0.92251759     0.00022944593 -0.7571702     -1.4628962    
    601000   0.98276075     0.001825472   -0.6795754     -1.4313874    
    602000   1.0135148      0.00055972808 -0.62129052    -1.3966294    
    603000   0.97620429    -0.0012411469  -0.62496178    -1.3717581    
    604000   0.94462479     2.2203358e-07 -0.66931045    -1.3919484    
    605000   0.94723299     0.0013840195  -0.67405429    -1.3986875    
    606000   0.9935024      0.0026885576  -0.64087435    -1.4009037    
    607000   1.0797396      0.0006102223  -0.57841608    -1.4044168    
    608000   1.0009429      0.0019210883  -0.67613848    -1.4418598    
    609000   0.97348286     0.00066657248 -0.70975371    -1.4544681    
    610000   0.94198597    -0.0012525176  -0.70973054    -1.4303498    
    611000   0.98513418     0.00042855089 -0.60923547    -1.3628631    
    612000   0.95539642    -0.00017509703 -0.60313485    -1.3340131    
    613000   1.0767259      0.0019036056  -0.54279042    -1.3664858    
    614000   0.98882629     0.0011769253  -0.64534069    -1.4017928    
    615000   1.0143497      0.0007674328  -0.62367808    -1.3996556    
    616000   0.96139191     0.00031166815 -0.6670721     -1.4025369    
    617000   1.0940732      0.0013458478  -0.54062492    -1.3775909    
    618000   1.0137377      0.00021908905 -0.62045921    -1.3959685    
    619000   0.9935106      0.0005141321  -0.61867817    -1.3787138    
    620000   1.04281       -6.0138808e-05 -0.60109674    -1.3988464    
    621000   0.97195951    -0.00061489298 -0.66437583    -1.4079249    
    622000   1.0046953      0.00073441469 -0.64286706    -1.411459     
    623000   0.98141238     0.0010785185  -0.63459235    -1.3853728    
    624000   1.0024147      0.00012044537 -0.63699044    -1.4038377    
    625000   1.031962       0.0017393992  -0.60258559    -1.3920365    
    626000   0.98927876     0.00065797821 -0.66139077    -1.418189     
    627000   1.0405129      0.000519888   -0.58852514    -1.3845175    
    628000   0.97315534     0.0018167048  -0.62660973    -1.3710736    
    629000   0.95478319    -0.00014984268 -0.65911923    -1.3895284    
    630000   0.97884717    -3.2993272e-05 -0.7062529     -1.455071     
    631000   0.93749354     0.0014579713  -0.70207441    -1.419257     
    632000   0.99388672    -0.00029338907 -0.64911633    -1.4094397    
    633000   0.99261786     0.0014012637  -0.62740823    -1.3867609    
    634000   0.98063136    -0.00087937026 -0.65152372    -1.4017067    
    635000   1.117251      -0.00060895494 -0.58919054    -1.4438876    
    636000   1.01083        0.0016309934  -0.6990697     -1.4723546    
    637000   0.9301975     -4.6004105e-05 -0.72909038    -1.4406915    
    638000   1.0679868     -2.8466597e-05 -0.66107151    -1.4780814    
    639000   1.0074195      0.00036334985 -0.6854743     -1.4561502    
    640000   1.0587003      0.0018585169  -0.66573698    -1.4756427    
    641000   1.084191       0.00064249961 -0.6240593     -1.4534654    
    642000   0.99531795     0.0024971547  -0.70700846    -1.4684267    
    643000   1.0585081      0.0023914984  -0.67261026    -1.482369     
    644000   0.96773282    -0.00055165553 -0.7503562     -1.4906718    
    645000   0.94253453     3.6131238e-05 -0.77785036    -1.4988893    
    646000   1.0904544     -0.00057438511 -0.71465079    -1.5488484    
    647000   0.99766234    -0.00071709169 -0.67796729    -1.441179     
    648000   1.0118374     -0.00016858562 -0.73507123    -1.5091269    
    649000   0.99745129     0.00046295427 -0.76618222    -1.5292325    
    650000   0.99648754     0.0016466067  -0.793613      -1.555926     
    651000   0.97912691     0.00067353852 -0.76813928    -1.5171714    
    652000   0.96725792    -0.00024321061 -0.78367603    -1.5236283    
    653000   0.9972992      0.00088586852 -0.81061116    -1.573545     
    654000   1.002415       0.0014154914  -0.70875413    -1.4756016    
    655000   1.0550219      0.00010176054 -0.71401538    -1.5211072    
    656000   0.99328431     0.0017090033  -0.79053824    -1.5504007    
    657000   0.98273197     0.0021661243  -0.76551602    -1.517306     
    658000   1.0711001      0.00043082647 -0.69699068    -1.5163822    
    659000   0.96720095     0.00042735378 -0.77216143    -1.5120701    
    660000   1.0396244     -0.0012117874  -0.70703835    -1.5023511    
    661000   1.0302204      0.00051817144 -0.69859446    -1.4867131    
    662000   1.0108278     -1.0901854e-05 -0.76808282    -1.5413661    
    663000   0.99690607    -0.00064765445 -0.74097341    -1.5036066    
    664000   1.0009882      0.0014655848  -0.74614981    -1.5119058    
    665000   0.95961269    -0.00023016134 -0.78734309    -1.5214468    
    666000   0.9251364     -0.00058030439 -0.82229845    -1.5300278    
    667000   1.0544148     -0.00042716442 -0.65030979    -1.4569371    
    668000   0.93835497     0.00095300346 -0.78342415    -1.5012657    
    669000   1.0307335      0.0013120515  -0.63733596    -1.4258471    
    670000   1.0758631      0.00030847361 -0.70762931    -1.5306646    
    671000   0.97385401     0.0004557134  -0.76293275    -1.5079311    
    672000   1.0292518      0.00085406282 -0.72250326    -1.5098809    
    673000   1.0144472     -0.00038879745 -0.72496169    -1.5010138    
    674000   0.98441137     0.0010785894  -0.73200322    -1.4850779    
    675000   1.041787       0.0012970994  -0.71753515    -1.5145022    
    676000   1.0731177     -8.3235656e-05 -0.73730979    -1.5582448    
    677000   1.0553286     -0.0011139471  -0.77499349    -1.5823199    
    678000   0.98315513     0.00028381107 -0.84330779    -1.5954215    
    679000   1.0317448     -0.0001700005  -0.74907153    -1.5383563    
    680000   0.992446       0.00064732043 -0.8210419     -1.5802631    
    681000   1.1112921     -0.0003453251  -0.70984518    -1.5599836    
    682000   0.99390792    -0.00070936184 -0.80988239    -1.5702219    
    683000   0.90200353     0.00092897146 -0.88033173    -1.5703644    
    684000   0.9628755      0.0014064967  -0.77250631    -1.5091061    
    685000   1.0802755      0.00096323049 -0.73128069    -1.5576914    
    686000   0.91184038     0.00095763896 -0.81045266    -1.5080106    
    687000   1.0391675      0.00025568583 -0.72659892    -1.5215621    
    688000   1.0120929      0.00088393808 -0.74153428    -1.5157853    
    689000   1.054602      -3.5954086e-05 -0.6671369     -1.4739074    
    690000   1.0025731     -0.00037978524 -0.71273815    -1.4797066    
    691000   1.0578953      0.0023033257  -0.69628026    -1.5055702    
    692000   1.0030567      0.00097834527 -0.71131207    -1.4786505    
    693000   1.0824248      0.0013508655  -0.7043103     -1.5323653    
    694000   0.97513259     0.0011670344  -0.833539      -1.5795154    
    695000   1.0328443      0.00071963199 -0.79321031    -1.5833362    
    696000   0.96875015     0.0013905332  -0.8098725     -1.5509664    
    697000   1.1028344      0.00054353997 -0.7234434     -1.5671117    
    698000   0.99285759     0.00045531118 -0.79704482    -1.5565809    
    699000   1.0431463      0.0011126265  -0.7400016     -1.5380085    
    700000   1.005464      -0.0003313503  -0.75111573    -1.5202957    
    701000   1.0383021     -0.00090523394 -0.75546262    -1.5497637    
    702000   1.0247655      0.0012038582  -0.69601326    -1.4799589    
    703000   1.0082086      0.0015719393  -0.76576322    -1.5370428    
    704000   0.99116327     0.00089526117 -0.77836619    -1.5366061    
    705000   0.93122667    -0.00018505999 -0.8472491     -1.5596375    
    706000   0.98149313     0.0021000943  -0.77996671    -1.530809     
    707000   1.0351767     -9.2002568e-05 -0.78067713    -1.5725873    
    708000   1.0263508     -0.0007115264  -0.79127982    -1.5764382    
    709000   1.0294481      0.001385066   -0.71142181    -1.4989496    
    710000   0.99722826     0.00070298028 -0.798857      -1.5617366    
    711000   0.972258       0.0003276679  -0.79513195    -1.5389093    
    712000   0.98190882     0.00028037799 -0.8250776     -1.5762378    
    713000   1.0236175      0.0029896816  -0.75582076    -1.5388881    
    714000   1.0274417     -7.2408155e-06 -0.78742877    -1.5734217    
    715000   1.0418836      0.0014305059  -0.77443091    -1.5714719    
    716000   0.93694598     0.00021534814 -0.85991864    -1.5766823    
    717000   1.0349035      0.0016894483  -0.83990698    -1.6316081    
    718000   0.98691713     0.0023096173  -0.88697402    -1.6419656    
    719000   1.0045399      0.0016243331  -0.88658183    -1.6550548    
    720000   0.90813876     0.0013332554  -0.984521      -1.6792472    
    721000   0.99235967     0.0020640424  -0.85664722    -1.6158024    
    722000   1.0947664      0.00020170172 -0.83458221    -1.6720785    
    723000   1.0441062      0.0015835427  -0.83833271    -1.637074     
    724000   1.0735367      0.00049275954 -0.87481772    -1.6960733    
    725000   0.9074012      0.00087943324 -0.93234899    -1.6265109    
    726000   1.0120092      0.001562632   -0.78544643    -1.5596334    
    727000   1.0642177      0.00086382974 -0.7798697     -1.5939963    
    728000   0.97552406     0.00021910403 -0.83683057    -1.5831065    
    729000   0.98838961     0.00031262761 -0.800815      -1.5569331    
    730000   0.96385273     0.00094876343 -0.90149256    -1.6388399    
    731000   1.0346337      0.0013745983  -0.79567953    -1.5871743    
    732000   1.0153046      0.001960108   -0.80379038    -1.5804984    
    733000   0.95493113     0.0016874416  -0.84487077    -1.5753931    
    734000   1.0522012      0.00043828068 -0.81337314    -1.618307     
    735000   0.98103591     0.0010883849  -0.85743482    -1.6079273    
    736000   1.0426944      0.00065395618 -0.75215237    -1.5498136    
    737000   1.0865698      0.0011551403  -0.75358667    -1.5848126    
    738000   1.0695293      0.0011694163  -0.76731721    -1.5855071    
    739000   1.0020849     -0.00041791063 -0.7945743     -1.5611693    
    740000   1.0299541      0.0012091637  -0.76643897    -1.5543538    
    741000   1.0542793      3.4016222e-05 -0.76019444    -1.5667181    
    742000   1.0340296      0.001529709   -0.79658504    -1.5876177    
    743000   0.94881917     0.00070474309 -0.81508059    -1.5409273    
    744000   1.015685       0.0022987073  -0.8062656     -1.5832646    
    745000   1.0621222      0.00031798358 -0.78885695    -1.6013805    
    746000   1.0544072     -8.4003474e-06 -0.7908196     -1.5974411    
    747000   1.0122729     -0.00078955741 -0.76787083    -1.5422596    
    748000   0.9757379      0.00031444672 -0.86104499    -1.6074845    
    749000   1.0383781      0.00069612957 -0.79602782    -1.5903871    
    750000   0.95616602     0.00043546193 -0.84095762    -1.5724246    
    751000   0.98243659    -0.00069685663 -0.82920274    -1.5807667    
    752000   1.0302894      0.0005259253  -0.80219217    -1.5903636    
    753000   0.92303893     0.0025726803  -0.88928192    -1.5954067    
    754000   0.92174711     0.00057277719 -0.84967951    -1.554816     
    755000   0.99023895     4.2914764e-05 -0.81598931    -1.5735221    
    756000   0.983733       0.00018713078 -0.87034985    -1.6229056    
    757000   1.090767       0.0016925306  -0.73607332    -1.5705101    
    758000   1.0349663      0.0018774544  -0.81109643    -1.6028456    
    759000   1.0250508      0.0022856479  -0.86787343    -1.6520373    
    760000   0.95985562     0.00070752201 -0.89718936    -1.6314789    
    761000   0.95336633     0.00063987231 -0.89244795    -1.6217732    
    762000   0.94870821     0.0017963208  -0.89993366    -1.6256954    
    763000   1.0515076      0.00026288248 -0.7782937     -1.5826971    
    764000   0.98426803     0.00086542038 -0.84237247    -1.5953375    
    765000   0.97603532     0.00022532966 -0.83811328    -1.5847803    
    766000   0.95105356    -0.00081071384 -0.88257582    -1.6101318    
    767000   0.98198016    -2.482495e-05  -0.88440986    -1.6356247    
    768000   0.97780031     0.0009926816  -0.87867158    -1.6266888    
    769000   0.97087416     0.00066679282 -0.86667053    -1.6093893    
    770000   0.97028422     0.0010905937  -0.91714869    -1.6594161    
    771000   1.1464076      4.9989438e-05 -0.75567428    -1.6326761    
    772000   1.0096677      0.00032369715 -0.8086298     -1.5810256    
    773000   1.0002802      0.0010304636  -0.81594708    -1.5811614    
    774000   0.91028185     0.00025801368 -0.91786987    -1.6142355    
    775000   0.93889854     0.00047333902 -0.94069209    -1.6589495    
    776000   1.0187259      0.00067845474 -0.86411549    -1.6434408    
    777000   1.000036       0.0015479451  -0.87875151    -1.6437791    
    778000   0.96946478     0.00042785609 -0.91732846    -1.658969     
    779000   0.9863859      7.539198e-05  -0.91727094    -1.6718562    
    780000   1.021612       0.0018562     -0.87651801    -1.6580512    
    781000   1.0011964      0.00020379122 -0.86813464    -1.6340499    
    782000   0.97312518     0.00083374532 -0.93177987    -1.6762206    
    783000   0.98766574     0.00076231993 -0.90111203    -1.6566763    
    784000   1.0965998      0.000500403   -0.84304147    -1.6819403    
    785000   0.97062477     0.0012263536  -0.99288489    -1.7354128    
    786000   0.97517084     0.00042253359 -0.94801323    -1.6940189    
    787000   0.96320941    -0.00025685009 -0.95613286    -1.6929881    
    788000   1.0365262      2.8652455e-05 -0.88676889    -1.6797115    
    789000   1.024866       0.0010751109  -0.90896694    -1.6929894    
    790000   1.0573225      0.00088168065 -0.82840557    -1.6372573    
    791000   0.957192       0.00072356315 -0.94747815    -1.67973      
    792000   0.99209398     0.0023035698  -0.9438282     -1.7027801    
    793000   1.0443706      0.0022509058  -0.90439419    -1.7033377    
    794000   1.0753945      0.0021757823  -0.91111482    -1.7337916    
    795000   1.0092469      0.00048219373 -0.9146064     -1.6866803    
    796000   1.0344659      0.00087683069 -0.93672292    -1.7280893    
    797000   0.99903613     0.0012835005  -0.91092654    -1.6751892    
    798000   0.97675588     0.00082047998 -0.92675419    -1.6739724    
    799000   0.99557271     0.0023132688  -0.92048385    -1.682097     
    800000   1.0079956     -0.00044413724 -0.91183381    -1.6829505    
    801000   0.97032368     0.00096995659 -0.94252858    -1.6848262    
    802000   1.0873639      0.0009305044  -0.89448362    -1.726317     
    803000   1.0525679     -0.0017943065  -0.84936489    -1.6545793    
    804000   1.059408       0.0014134596  -0.85339643    -1.6638435    
    805000   0.99132578    -0.00017543732 -0.93288164    -1.6912459    
    806000   0.95064256     0.00010992674 -0.90315119    -1.6303927    
    807000   1.0636152      0.00038552362 -0.88173811    -1.6954037    
    808000   0.99461379     0.0011738389  -0.93077607    -1.6916556    
    809000   1.0418933      0.0011338793  -0.84508381    -1.6421322    
    810000   1.0385376      0.0018810993  -0.80702905    -1.6015103    
    811000   0.9588775      0.0014529549  -0.94824508    -1.6817864    
    812000   0.98215806    -0.00010602186 -0.92614514    -1.6774961    
    813000   0.99333283     0.00045906842 -0.94332639    -1.703226     
    814000   1.083978       0.00045845053 -0.87660801    -1.7058512    
    815000   0.99177153     0.0022630686  -0.8949438     -1.653649     
    816000   1.0131023      0.00015435389 -0.8700827     -1.6451059    
    817000   1.0388678      0.0010700538  -0.87641762    -1.6711515    
    818000   1.0128174     -0.00021420799 -0.91828306    -1.6930883    
    819000   1.1524815      0.0017337604  -0.77182848    -1.6534769    
    820000   1.0179089      0.00092201252 -0.91875413    -1.6974544    
    821000   0.94577108     0.00017026716 -0.94909309    -1.672608     
    822000   1.01873        0.00042130115 -0.85760487    -1.6369333    
    823000   1.0717549      0.00116311    -0.84734052    -1.667233     
    824000   0.98910766     0.0010598714  -0.89258416    -1.6492515    
    825000   0.93904917     0.00064918186 -0.89964596    -1.6180186    
    826000   0.96424417     0.00067276705 -0.91586854    -1.6535153    
    827000   0.99632154     0.00049937745 -0.86707046    -1.6292564    
    828000   0.95051023     0.00068515891 -0.88871329    -1.6158536    
    829000   1.0044883      0.00085782519 -0.91277222    -1.6812057    
    830000   0.9391027      0.00015715887 -0.96177671    -1.6801903    
    831000   0.92411582     0.00045480246 -0.9612157     -1.6681643    
    832000   1.0196886     -0.00026350597 -0.80521323    -1.585275     
    833000   1.0547466      0.0019734795  -0.78950033    -1.5963815    
    834000   0.95091035     8.9265199e-05 -0.90370624    -1.6311527    
    835000   0.93536239    -0.0010438829  -0.96582215    -1.6813744    
    836000   1.0253154      0.00073414784 -0.9088793     -1.6932456    
    837000   1.007945       0.00083918557 -0.90789048    -1.6789684    
    838000   0.96671869    -0.0006229365  -0.92569997    -1.6652398    
    839000   1.0323015      0.00029944869 -0.79443282    -1.5841435    
    840000   0.98876201     0.0012718555  -0.8410321     -1.597435     
    841000   1.0318652      0.0017776684  -0.85807427    -1.6474511    
    842000   1.0173145     -0.00083210181 -0.8656633     -1.6439089    
    843000   0.99310444     0.0016734308  -0.87443925    -1.6341642    
    844000   1.0424274     -3.784041e-05  -0.79571388    -1.5931708    
    845000   0.92329847     0.00054185262 -0.92842452    -1.6347478    
    846000   1.0052339      5.2913218e-05 -0.78642041    -1.5554244    
    847000   0.9337721      1.2250106e-05 -0.8487719     -1.5631076    
    848000   0.9059674      0.0026828324  -0.94839827    -1.6414633    
    849000   0.93598048     0.001680644   -0.84210046    -1.5581255    
    850000   1.0244393     -0.0010784828  -0.80761399    -1.5913101    
    851000   1.0514609      0.0010081039  -0.78873157    -1.5930992    
    852000   0.99002154     0.0011718823  -0.86732098    -1.6246875    
    853000   1.0659088      0.0016480946  -0.83371486    -1.6491351    
    854000   1.014174       0.00038591521 -0.85913956    -1.6349827    
    855000   0.99899567     0.0019262283  -0.89853685    -1.6627685    
    856000   0.97625167     0.00010405049 -0.95427995    -1.7011125    
    857000   1.1110748      0.001319344   -0.77587084    -1.6258431    
    858000   1.0318504      0.002253451   -0.82098626    -1.6103519    
    859000   1.056177       0.001889243   -0.85658622    -1.6645616    
    860000   1.0111464      0.0011156706  -0.88620129    -1.6597283    
    861000   1.0447569      0.0015607405  -0.78733997    -1.586579     
    862000   0.93961273    -0.0019776149  -0.90811773    -1.6269215    
    863000   1.0293669      0.0013414377  -0.82901337    -1.616479     
    864000   0.94222594     0.0011339635  -0.8642684     -1.5850713    
    865000   0.94134982     0.0013422473  -0.81711153    -1.5372441    
    866000   1.0107387     -0.00015980513 -0.79437216    -1.5675873    
    867000   0.96923446     0.0015909602  -0.81105399    -1.5525183    
    868000   0.96639901     1.2983706e-05 -0.85961781    -1.5989131    
    869000   1.0374142      0.0011638983  -0.82523076    -1.6188526    
    870000   1.0264776      0.0018033647  -0.77087546    -1.5561308    
    871000   1.0234344      0.0010071743  -0.76629752    -1.5492248    
    872000   1.1311694      0.00079061302 -0.6708408     -1.5361854    
    873000   0.9782285     -0.00012307516 -0.85527981    -1.6036246    
    874000   0.98446316    -0.0013585885  -0.80036721    -1.5534815    
    875000   1.0438127      0.0022651747  -0.78907266    -1.5875894    
    876000   0.93485195     0.0011346463  -0.8893604     -1.6045221    
    877000   1.065734       0.00059299764 -0.77588237    -1.5911689    
    878000   0.96060603     0.00088232399 -0.92334824    -1.6582118    
    879000   1.007139       0.00088993413 -0.85454465    -1.625006     
    880000   1.0845568     -0.00053116631 -0.7453451     -1.5750311    
    881000   1.0953973      0.0014950455  -0.74260061    -1.5805796    
    882000   0.98510593     0.0020751408  -0.82671119    -1.5803172    
    883000   1.0140791      0.00034405001 -0.78609324    -1.5618638    
    884000   1.048847       0.0016297854  -0.78535162    -1.5877196    
    885000   1.0023238     -9.5530332e-05 -0.84095392    -1.6077316    
    886000   0.96768556    -0.00037547033 -0.84455454    -1.584834     
    887000   0.96712305     0.002066926   -0.82684509    -1.5666942    
    888000   0.97584591     0.00083857478 -0.87107462    -1.6175967    
    889000   0.99820742     0.00050575295 -0.80172929    -1.565358     
    890000   0.98996096     0.001159836   -0.81967892    -1.5769991    
    891000   1.0336259      0.0022291995  -0.79566238    -1.5863862    
    892000   1.0442554      0.00038007111 -0.71934669    -1.5182021    
    893000   1.0590436      0.0013512086  -0.7495704     -1.5597388    
    894000   1.0485904      0.0020706554  -0.7716082     -1.5737799    
    895000   0.98904747    -1.4565712e-05 -0.83648204    -1.5931034    
    896000   1.0510327      0.0014980582  -0.79847009    -1.6025101    
    897000   1.0006715     -0.0010002469  -0.79604087    -1.5615545    
    898000   0.95610112     0.0015993292  -0.87088686    -1.6023042    
    899000   1.0072774      0.00086213742 -0.78381119    -1.5543784    
    900000   1.0188408      0.0012420786  -0.85243974    -1.6318529    
    901000   0.97077184     0.0017950567  -0.78343443    -1.5260749    
    902000   1.0174793     -7.6994911e-05 -0.82029818    -1.5986699    
    903000   0.94193207     0.0013538867  -0.85218012    -1.5727582    
    904000   0.94037466    -0.00024825573 -0.84579409    -1.5651807    
    905000   0.96890584    -0.0010690947  -0.82500625    -1.5662192    
    906000   0.962883       0.0012555178  -0.83362245    -1.5702279    
    907000   1.0472241      0.0018308701  -0.80915138    -1.6102778    
    908000   1.0039774      0.0010676986  -0.81896915    -1.5870119    
    909000   0.96254136     0.00082210845 -0.82805956    -1.5644037    
    910000   0.94402409     0.0017355953  -0.86019037    -1.5823688    
    911000   1.0193028      0.00075303189 -0.73829643    -1.5180631    
    912000   0.95981559    -0.00076725902 -0.77618313    -1.5104421    
    913000   1.027773       0.0011574701  -0.81030804    -1.5965544    
    914000   0.98381468     0.00026076667 -0.79644285    -1.5490611    
    915000   1.0850081      0.00040099526 -0.7143629     -1.5443941    
    916000   0.97282206     0.0012762899  -0.77277816    -1.516987     
    917000   1.0669072      0.00039578533 -0.69834564    -1.5145297    
    918000   1.0924861      0.00031711905 -0.69794655    -1.5336984    
    919000   1.0307158     -3.3007326e-05 -0.71461651    -1.5031141    
    920000   0.9789013     -0.00038577143 -0.78739303    -1.5362525    
    921000   1.0412207     -0.00018288652 -0.78860324    -1.5851371    
    922000   0.99459186     0.00033269857 -0.77068545    -1.5315482    
    923000   1.0145747     -5.9436337e-05 -0.8095599     -1.5857095    
    924000   1.0446491      0.00070490755 -0.74752835    -1.5466849    
    925000   0.91037551     0.002599482   -0.87821082    -1.5746481    
    926000   1.0478459      0.0012903739  -0.79645831    -1.5980604    
    927000   1.0614219      0.0012898835  -0.78046692    -1.5924547    
    928000   1.0550025     -3.026469e-05  -0.74324889    -1.5503258    
    929000   0.94500496     0.00044780144 -0.80347033    -1.5263991    
    930000   1.000687       0.00027626864 -0.8031843     -1.5687099    
    931000   1.0637086      0.0016420608  -0.74533944    -1.5590765    
    932000   0.99197552     0.00096607969 -0.7827278     -1.5415891    
    933000   0.91839403     0.0001179578  -0.86331942    -1.5658909    
    934000   1.0506595      0.0018572373  -0.75602284    -1.5597774    
    935000   0.98105251     1.9670235e-05 -0.75603698    -1.5065421    
    936000   0.98561026     0.0015389097  -0.80530532    -1.5592972    
    937000   1.0093047      0.00014310833 -0.7741611     -1.5462792    
    938000   0.98074806     0.00082865838 -0.79496217    -1.5452344    
    939000   0.92492264     0.0016233373  -0.88552518    -1.593091     
    940000   1.0717493      0.0017415527  -0.71650789    -1.5363961    
    941000   1.0426839      0.0013484347  -0.70603841    -1.5036916    
    942000   0.99831984     0.0009986315  -0.78849822    -1.5522129    
    943000   1.0225179      0.001186443   -0.74069503    -1.5229212    
    944000   0.99104187     0.0020849379  -0.74934541    -1.5074924    
    945000   1.0207019      0.00045370324 -0.75564851    -1.5364855    
    946000   1.0398398      0.0009395108  -0.74660487    -1.5420823    
    947000   0.95507306     0.00082862629 -0.79650942    -1.5271403    
    948000   0.97789433    -0.00031159996 -0.77003731    -1.5181265    
    949000   1.0145164      0.00065179089 -0.79783885    -1.5739439    
    950000   1.0724509      0.00068520751 -0.75564551    -1.5760704    
    951000   1.0411861      0.0018580199  -0.77005054    -1.5665579    
    952000   1.0147541      0.00080325975 -0.78126662    -1.5575535    
    953000   1.0343723      0.00093499245 -0.75486121    -1.5461561    
    954000   0.97008739     0.0011210216  -0.7753824     -1.5174992    
    955000   0.99344311     0.00050134395 -0.8345185     -1.5945025    
    956000   1.0944843      0.0013097908  -0.68699193    -1.5242724    
    957000   1.0813976      0.00099126753 -0.7550002     -1.5822694    
    958000   0.95431685    -9.4912487e-05 -0.86006616    -1.5901186    
    959000   1.0289022      0.0010869217  -0.75521419    -1.5423243    
    960000   1.0377749      0.0017856245  -0.75605596    -1.5499537    
    961000   0.95582895     0.0010833928  -0.81409201    -1.5453012    
    962000   1.0290226      8.5197955e-05 -0.73768745    -1.5248898    
    963000   1.03509        0.00057735735 -0.75168359    -1.5435275    
    964000   0.95196796     0.0013307243  -0.80020228    -1.5284578    
    965000   0.9730523      0.0017208723  -0.8221922     -1.5665772    
    966000   1.0216312      0.0020099447  -0.75526601    -1.5368138    
    967000   0.95930696    -0.00031816319 -0.86533755    -1.5992074    
    968000   1.0479664      0.00024835743 -0.82537361    -1.6270679    
    969000   1.030179      -3.2915011e-05 -0.81056177    -1.5986487    
    970000   0.94401238     0.00093631795 -0.91622452    -1.638394     
    971000   0.94297508     0.00010007425 -0.89333864    -1.6147146    
    972000   0.94292303     0.0022352099  -0.89384788    -1.615184     
    973000   1.0427104      3.6740227e-05 -0.85489011    -1.6525636    
    974000   0.99233787     0.0014051031  -0.86024992    -1.6193884    
    975000   1.0821453      0.0030733888  -0.76295898    -1.5908001    
    976000   1.1071742      0.00091657683 -0.73422936    -1.5812176    
    977000   0.96543534     0.0019312325  -0.82154932    -1.5601074    
    978000   0.97865006     0.002304748   -0.87798855    -1.6266558    
    979000   0.98207448     0.0014911866  -0.86045071    -1.6117377    
    980000   0.9516079      0.0010172599  -0.85342146    -1.5814015    
    981000   1.055328       0.0023301005  -0.80733962    -1.6146656    
    982000   1.0684129      0.00030843468 -0.80038611    -1.617722     
    983000   0.93341437     0.0015343532  -0.91564015    -1.6297021    
    984000   1.0358514      0.00039672719 -0.81414798    -1.6065743    
    985000   0.94593239     0.0024934955  -0.89745026    -1.6210885    
    986000   0.97991706     0.00077386409 -0.89942531    -1.6490619    
    987000   1.0012016      9.5435237e-05 -0.87271913    -1.6386384    
    988000   1.0741589      0.00059124058 -0.79419393    -1.6159255    
    989000   0.93119984    -3.2748228e-06 -0.92308927    -1.6354571    
    990000   0.9832212     -0.00018378183 -0.85845564    -1.6106199    
    991000   1.0690959      0.00042449171 -0.84258916    -1.6604475    
    992000   1.0507912      0.00074596834 -0.84052805    -1.6443833    
    993000   1.0147462     -0.00041826833 -0.86180654    -1.6380874    
    994000   0.97799697     0.0012740959  -0.84867641    -1.5968441    
    995000   1.0410245     -0.00073762229 -0.7884779     -1.5848616    
    996000   0.9195745      0.00079665122 -0.87590973    -1.5793842    
    997000   1.0387744      0.0010035238  -0.79964651    -1.5943089    
    998000   0.95369779     0.00049819164 -0.90769757    -1.6372764    
    999000   0.98424825     0.00026382133 -0.87953434    -1.6324842    
   1000000   1.0541473      0.0007975856  -0.80021228    -1.606635     
Loop time of 39.9345 on 1 procs for 1000000 steps with 600 atoms

Performance: 21635401.760 tau/day, 25040.974 timesteps/s
99.1% CPU use with 1 MPI tasks x no OpenMP threads

MPI task timing breakdown:
Section |  min time  |  avg time  |  max time  |%varavg| %total
---------------------------------------------------------------
Pair    | 4.728      | 4.728      | 4.728      |   0.0 | 11.84
Bond    | 0.042282   | 0.042282   | 0.042282   |   0.0 |  0.11
Neigh   | 6.9175     | 6.9175     | 6.9175     |   0.0 | 17.32
Comm    | 1.0351     | 1.0351     | 1.0351     |   0.0 |  2.59
Output  | 0.50045    | 0.50045    | 0.50045    |   0.0 |  1.25
Modify  | 24.827     | 24.827     | 24.827     |   0.0 | 62.17
Other   |            | 1.884      |            |       |  4.72

Nlocal:            600 ave         600 max         600 min
Histogram: 1 0 0 0 0 0 0 0 0 0
Nghost:             68 ave          68 max          68 min
Histogram: 1 0 0 0 0 0 0 0 0 0
Neighs:            420 ave         420 max         420 min
Histogram: 1 0 0 0 0 0 0 0 0 0

Total # of neighbors = 420
Ave neighs/atom = 0.7
Ave special neighs/atom = 0
Neighbor list builds = 212469
Dangerous builds = 0
Total wall time: 0:00:39
