fix fLANG all langevin 1.0 1.0 1.0 100
neigh_modify exclude molecule/intra all
fix rigidNVE linked_vesicle rigid/nve molecule
  1 rigid bodies with 5 atoms
fix NVE synapsin nve 1.0 1.0 1.0

    ##======================================##
    ## Output
    ##======================================##

thermo 1000
thermo_style custom step temp press etotal epair
thermo_modify flush yes
timestep 0.01

    ##======================================##
    ## Equilibration before output
    ##======================================##


    ##======================================##
    ## Run with output
    ##======================================##

fix enforce_2d all enforce2d
dump 2 all custom 1000 Results_eps_attr9_eps_rep1_eps_rep_weak0_range2_attr_with_repFalse_n_synapsin600_n_vesicles1/Movie_2d_eps_attr9_eps_rep1_eps_rep_weak0_range2_attr_with_repFalse_n_synapsin600_n_vesicles1.xyz id type mol x y z
run 1000000
Generated 0 of 3 mixed pair_coeff terms from geometric mixing rule
Neighbor list info ...
  update every 1 steps, delay 1 steps, check yes
  max neighbors/atom: 2000, page size: 100000
  master list distance cutoff = 11.52462
  ghost atom cutoff = 11.52462
  binsize = 5.7623102, bins = 55 55 1
  1 neighbor lists, perpetual/occasional/extra = 1 0 0
  (1) pair cosine/squared, perpetual
      attributes: half, newton on
      pair build: half/bin/newton
      stencil: half/bin/2d
      bin: standard
Per MPI rank memory allocation (min/avg/max) = 8.538 | 8.538 | 8.538 Mbytes
   Step          Temp          Press          TotEng         E_pair    
         0   0.99605013    -0.012465183    0.98864149     0            
      1000   0.9801834      0.0063907834   0.95801857    -0.014874209  
      2000   1.0334549      0.006788801    0.99980236    -0.025965693  
      3000   1.0710765      0.0067193934   1.0336052     -0.029504623  
      4000   0.96129606     0.0052786896   0.91135421    -0.042791719  
      5000   0.99266839     0.0064878475   0.94426181    -0.041023098  
      6000   1.023451       0.0062839216   0.97410894    -0.041729647  
      7000   0.95894735     0.0058377708   0.89747778    -0.0543369    
      8000   0.99912959     0.0069966505   0.93485683    -0.056841224  
      9000   0.96754991     0.0059393579   0.90720095    -0.053152305  
     10000   0.94874728     0.0057495304   0.8707532     -0.070937278  
     11000   1.0351016      0.0059512948   0.95758919    -0.069813333  
     12000   0.99593259     0.0066902678   0.90446158    -0.084063245  
     13000   0.99392442     0.0058290897   0.89024285    -0.096288746  
     14000   0.97856169     0.0057558747   0.87379011    -0.09749302   
     15000   0.99854273     0.0056864424   0.8769283     -0.11418726   
     16000   0.94110013     0.0050223221   0.82362904    -0.11047118   
     17000   1.0793857      0.006650954    0.96119846    -0.11015879   
     18000   0.90889375     0.0052152375   0.79872991    -0.10340347   
     19000   0.95607874     0.0054126073   0.83777381    -0.1111936    
     20000   1.038981       0.0062691446   0.92266908    -0.10858401   
     21000   0.93089944     0.0052292996   0.81249996    -0.11147544   
     22000   0.94974169     0.0051456253   0.82719821    -0.11547929   
     23000   0.98964524     0.0062748253   0.86926061    -0.11302363   
     24000   0.95510162     0.0058483501   0.83650606    -0.1114915    
     25000   1.0316807      0.0063510038   0.9175363     -0.10647071   
     26000   0.94119651     0.0052933125   0.82797186    -0.10622401   
     27000   1.0405479      0.0060710684   0.92420815    -0.10860014   
     28000   1.0060042      0.006859396    0.88554797    -0.11297353   
     29000   1.0151989      0.005768885    0.88457691    -0.12307096   
     30000   1.0055284      0.0052279411   0.87514911    -0.12290015   
     31000   0.99808966     0.0068117279   0.86948671    -0.12117914   
     32000   1.0590097      0.0048639766   0.94294146    -0.1081913    
     33000   0.98210262     0.0051605972   0.85045184    -0.12434588   
     34000   0.99237318     0.0065601705   0.8680504     -0.11694149   
     35000   1.0797518      0.0072834138   0.93482305    -0.13689754   
     36000   0.95977643     0.0052231205   0.80278106    -0.14985653   
     37000   1.0012707      0.0054558717   0.8396746     -0.15414867   
     38000   0.9998721      0.0056377888   0.84319823    -0.14923681   
     39000   0.98271041     0.006178208    0.82933728    -0.14606372   
     40000   1.0305097      0.0062930009   0.87259832    -0.15024639   
     41000   1.0523652      0.0064670425   0.88851024    -0.15602747   
     42000   0.91673544     0.0054813382   0.75906981    -0.15084694   
     43000   0.9763602      0.0051293589   0.81428662    -0.1548114    
     44000   1.0398979      0.0067397589   0.8869116     -0.14525149   
     45000   1.0774508      0.0058825827   0.91293713    -0.15649953   
     46000   0.94379243     0.0055347819   0.78990654    -0.14686595   
     47000   0.97639068     0.0067353743   0.8223398     -0.14678846   
     48000   0.98481948     0.005483564    0.82784338    -0.14965099   
     49000   1.0473871      0.0063474778   0.88814399    -0.15145261   
     50000   0.92815269     0.0051008608   0.77282741    -0.14842166   
     51000   1.0473989      0.0055917749   0.88730008    -0.1523083    
     52000   0.92910576     0.005466682    0.77640442    -0.14579064   
     53000   1.0282311      0.0067673726   0.85537332    -0.16520979   
     54000   1.0339045      0.0063042886   0.86629753    -0.15991675   
     55000   1.0131381      0.0068829842   0.83577092    -0.16983142   
     56000   0.93333531     0.0057109799   0.77035764    -0.15603551   
     57000   1.0270137      0.0071078696   0.85147193    -0.16790278   
     58000   0.93739965     0.0059138563   0.76700232    -0.16342494   
     59000   1.0420334      0.0071002399   0.86726369    -0.16701905   
     60000   0.96785911     0.0055714889   0.80189501    -0.15876515   
     61000   0.97562305     0.0067245872   0.80334282    -0.16502353   
     62000   0.98086202     0.0063429163   0.81078182    -0.16278454   
     63000   0.96511725     0.0049415448   0.7973387     -0.16059999   
     64000   1.0410458      0.0064026792   0.85708379    -0.17621867   
     65000   1.0185954      0.0069179572   0.82823831    -0.18278073   
     66000   0.95526023     0.0066207179   0.76483971    -0.18331528   
     67000   1.0353996      0.0065805781   0.85689703    -0.17080129   
     68000   0.93682583     0.0058516445   0.74562474    -0.18423296   
     69000   1.0057123      0.0071142178   0.82363911    -0.17459267   
     70000   1.0040923      0.0049583354   0.80440293    -0.19222093   
     71000   0.99891023     0.006759884    0.7913642     -0.20011612   
     72000   1.0567577      0.0060300442   0.84061707    -0.20828044   
     73000   1.0364565      0.0062506464   0.84723099    -0.18151635   
     74000   1.0042179      0.0054033019   0.7998596     -0.1968889    
     75000   0.95873949     0.006566173    0.7463516     -0.20525676   
     76000   1.0190352      0.0059516411   0.81070596    -0.20074966   
     77000   0.95921921     0.0063076244   0.74546966    -0.20661487   
     78000   1.0054606      0.0064073607   0.79457103    -0.20341089   
     79000   0.97098344     0.0054368768   0.75667445    -0.2070868    
     80000   1.0387434      0.006173279    0.82976482    -0.20125241   
     81000   0.962879       0.0066855007   0.74283048    -0.21288661   
     82000   0.97600007     0.0056538994   0.7535524     -0.21518816   
     83000   0.9725088      0.0066202036   0.74312814    -0.22214712   
     84000   1.0261939      0.0054396422   0.80855388    -0.2100072    
     85000   0.96964353     0.0054875876   0.73636635    -0.22606495   
     86000   0.93213632     0.004430123    0.69829759    -0.22690548   
     87000   0.94099712     0.0061302286   0.70447269    -0.22952528   
     88000   0.99063731     0.0061726279   0.75502414    -0.22824479   
     89000   1.0224155      0.0063726992   0.78329713    -0.23151362   
     90000   0.98312562     0.0067589328   0.74775224    -0.22806088   
     91000   1.0395191      0.0051547299   0.79532932    -0.23645787   
     92000   1.0236602      0.005875601    0.78608218    -0.22996398   
     93000   0.97986317     0.0063637984   0.71605637    -0.25651857   
     94000   1.0073957      0.0063153367   0.74735006    -0.25255263   
     95000   1.0093767      0.0063075985   0.75662806    -0.24524086   
     96000   0.99114554     0.0065332121   0.72930508    -0.2544683    
     97000   1.0070004      0.0053716335   0.7484966     -0.25101371   
     98000   0.99788105     0.0059614689   0.73862639    -0.2518324    
     99000   0.99007494     0.0055927769   0.72726004    -0.25545071   
    100000   1.0191559      0.006643049    0.7464991     -0.26507631   
    101000   1.0179576      0.0055607485   0.75823267    -0.2521533    
    102000   1.058127       0.005685134    0.78818683    -0.26206982   
    103000   0.98001199     0.0065602119   0.7188025     -0.25392014   
    104000   0.97381655     0.0059315249   0.70087985    -0.26569343   
    105000   1.0211818      0.0069049521   0.76984934    -0.24373687   
    106000   1.0279228      0.0067567533   0.75384178    -0.26643535   
    107000   0.92516915     0.0046829968   0.66103353    -0.2572542    
    108000   0.94427983     0.005014473    0.66986935    -0.26738692   
    109000   0.99061283     0.0065376927   0.70105352    -0.28219112   
    110000   1.0351781      0.0053510699   0.74567774    -0.2818007    
    111000   0.98730252     0.0059252182   0.69635847    -0.28360048   
    112000   0.97747461     0.0052152795   0.69469767    -0.27550647   
    113000   1.0012843      0.004979303    0.73928606    -0.2545507    
    114000   0.97717088     0.005662813    0.71326668    -0.25663599   
    115000   1.0342015      0.0064751914   0.74914464    -0.2773645    
    116000   1.0278775      0.0049391964   0.73449094    -0.28574118   
    117000   1.0271913      0.0067819888   0.73298728    -0.28656376   
    118000   0.98806985     0.0059459271   0.69880245    -0.28191811   
    119000   1.0121705      0.0065319117   0.72917924    -0.27546274   
    120000   1.0269413      0.0060782101   0.7028543     -0.31644861   
    121000   1.022479       0.0067908984   0.71116175    -0.30371199   
    122000   1.0777212      0.0060137944   0.77661532    -0.29308982   
    123000   1.0417237      0.0059910306   0.73649246    -0.29748287   
    124000   0.98144957     0.0061783455   0.68585644    -0.28829309   
    125000   0.97583309     0.0068361818   0.66491168    -0.30366315   
    126000   1.0449014      0.0058659878   0.7324471     -0.30468235   
    127000   0.99830544     0.0065629541   0.67844627    -0.31243376   
    128000   0.99569122     0.004872473    0.67506981    -0.31321544   
    129000   0.97251475     0.0069529093   0.65475804    -0.31052313   
    130000   1.0040841      0.0062589465   0.69351398    -0.30310175   
    131000   1.0619944      0.0062441615   0.74408631    -0.31000898   
    132000   0.9840378      0.0060948219   0.66362275    -0.31309576   
    133000   1.0000966      0.0066031538   0.67328596    -0.31937187   
    134000   1.0212995      0.0065312679   0.70530251    -0.30840053   
    135000   1.0941732      0.0076023776   0.77716043    -0.30887424   
    136000   0.99623531     0.0051671059   0.67781634    -0.31100896   
    137000   1.0217885      0.0057040527   0.70236783    -0.3118206    
    138000   0.98559497     0.0057767073   0.66825259    -0.31001151   
    139000   0.9914719      0.0061508471   0.6864553     -0.29764201   
    140000   1.0026722      0.0060329874   0.69452265    -0.30069164   
    141000   0.98417679     0.0062976143   0.66750234    -0.30935413   
    142000   1.004238       0.0070055762   0.67882433    -0.3179441    
    143000   1.0481662      0.0056674046   0.72417287    -0.31619702   
    144000   1.0152386      0.0056101687   0.67985676    -0.32783049   
    145000   0.99777139     0.0053714977   0.66434149    -0.32600846   
    146000   0.9551827      0.0050381766   0.63878974    -0.30928829   
    147000   0.97840903     0.0052551405   0.64989938    -0.32123223   
    148000   0.9479932      0.0048125366   0.6260904     -0.3148516    
    149000   1.0136045      0.0059617743   0.67894149    -0.32712376   
    150000   0.94050219     0.0059234834   0.59964362    -0.33386311   
    151000   1.0232542      0.0063120736   0.70327789    -0.31236533   
    152000   1.0783501      0.0069231187   0.74231648    -0.32801284   
    153000   0.95195867     0.0051769293   0.64260655    -0.30227144   
    154000   1.0297135      0.0066573664   0.7033798     -0.31867465   
    155000   0.91959078     0.0039152967   0.6137494     -0.29900144   
    156000   1.0349459      0.0070212843   0.72011283    -0.30713509   
    157000   1.0190174      0.0062484119   0.69763048    -0.31380746   
    158000   1.0372963      0.0064284577   0.73526919    -0.29431163   
    159000   0.91939325     0.0051115649   0.61443375    -0.29812103   
    160000   1.0103174      0.0066850964   0.7015981     -0.30120455   
    161000   0.99956569     0.0052105465   0.68658974    -0.30554117   
    162000   0.95926834     0.0071382492   0.64139387    -0.31073941   
    163000   0.94523415     0.0060414532   0.6142404     -0.32396308   
    164000   1.0140024      0.0058027739   0.68738736    -0.31907292   
    165000   0.96258408     0.0061010203   0.63727636    -0.318148     
    166000   0.97207381     0.0057887105   0.64378571    -0.3210578    
    167000   0.97852118     0.0060943803   0.64481281    -0.32643011   
    168000   1.0754513      0.0070593111   0.74169216    -0.32575991   
    169000   0.96347469     0.0063782717   0.62331014    -0.3329982    
    170000   0.95713423     0.005985676    0.61964642    -0.33036863   
    171000   0.97303722     0.0055633507   0.63418921    -0.33161055   
    172000   1.0224841      0.00736954     0.66873347    -0.34614541   
    173000   1.0112859      0.0050886672   0.662279      -0.34148494   
    174000   1.0146951      0.0068157889   0.68064349    -0.32650429   
    175000   0.90863939     0.0040312468   0.56206287    -0.33981804   
    176000   1.0004247      0.0050148341   0.64974441    -0.34323909   
    177000   1.0317943      0.00589388     0.66959208    -0.35452775   
    178000   0.98152629     0.0055680313   0.62913445    -0.34509123   
    179000   1.0393261      0.0061095118   0.66266517    -0.36893041   
    180000   0.97956668     0.005066519    0.64622354    -0.32605711   
    181000   1.0377504      0.0068091035   0.69806923    -0.33196232   
    182000   1.0711242      0.0058288226   0.7133562     -0.34980095   
    183000   1.0027825      0.005781884    0.62255989    -0.37276386   
    184000   1.0112558      0.0061171735   0.63633192    -0.36740213   
    185000   1.0395448      0.0059420417   0.66187892    -0.3699337    
    186000   0.97030836     0.0051538475   0.58904775    -0.37404344   
    187000   1.0416871      0.0062439346   0.65373511    -0.38020393   
    188000   1.0471385      0.0063296136   0.66312177    -0.37622805   
    189000   1.0292771      0.0056924012   0.63673767    -0.3848836    
    190000   1.0081172      0.0055854018   0.620909      -0.37970979   
    191000   1.0101173      0.005895152    0.62543284    -0.37717123   
    192000   1.0401793      0.0046028453   0.64606922    -0.38637325   
    193000   1.0112881      0.0052801772   0.57817423    -0.42559193   
    194000   0.99606176     0.005672665    0.56069226    -0.42796077   
    195000   1.0073125      0.0067146183   0.58354008    -0.41628      
    196000   1.0161187      0.0070338017   0.5870996     -0.42146121   
    197000   1.0375492      0.0052283029   0.63893527    -0.39089664   
    198000   1.0578975      0.006400571    0.60892479    -0.44110408   
    199000   1.03621        0.0066619377   0.56664662    -0.46185604   
    200000   0.95837069     0.0055682955   0.49115508    -0.46008724   
    201000   1.0111621      0.0050202831   0.56074245    -0.44289859   
    202000   1.0102181      0.0059710735   0.55105401    -0.45165009   
    203000   1.0163745      0.0061286034   0.55731432    -0.45150033   
    204000   1.0279999      0.0051019989   0.59252803    -0.42782563   
    205000   1.0189959      0.0058044646   0.60260422    -0.4088124    
    206000   0.93857787     0.0050008928   0.48754052    -0.44405619   
    207000   1.0085766      0.0065760899   0.57804708    -0.42302767   
    208000   1.0157826      0.0054277922   0.56506894    -0.44315826   
    209000   1.0565079      0.0064238091   0.6134191     -0.43523052   
    210000   1.0205921      0.0056808639   0.57978115    -0.43321975   
    211000   0.98548735     0.0054690924   0.54285573    -0.43530155   
    212000   0.99148684     0.0053892506   0.54717687    -0.43693527   
    213000   0.99190605     0.0056313975   0.5555051     -0.42902313   
    214000   1.0313155      0.0063855834   0.57821117    -0.4454334    
    215000   1.0271205      0.0068220949   0.59148769    -0.42799309   
    216000   0.99727679     0.0052273364   0.54786563    -0.44199339   
    217000   0.98212499     0.0059113188   0.53681499    -0.43800493   
    218000   1.0620134      0.0064516183   0.61672305    -0.4373911    
    219000   1.0774259      0.0060461911   0.59491235    -0.47449962   
    220000   0.92191423     0.0058142907   0.43058242    -0.48447459   
    221000   0.99199054     0.0048977069   0.49909797    -0.48551413   
    222000   1.0223064      0.0056447159   0.51635337    -0.49834915   
    223000   0.99536084     0.0051661245   0.5005148     -0.48744252   
    224000   0.99683481     0.0048307701   0.50359098    -0.48582935   
    225000   1.0249749      0.0054744115   0.54017232    -0.47717881   
    226000   1.0195298      0.0046660235   0.56321457    -0.4487319    
    227000   0.95262062     0.0053222658   0.49602488    -0.44951014   
    228000   0.99794995     0.0055552659   0.50102223    -0.48950496   
    229000   0.98026921     0.0061092181   0.50497512    -0.46800283   
    230000   1.0437958      0.006581545    0.53776452    -0.49826754   
    231000   1.0057592      0.0051437185   0.49908939    -0.49918899   
    232000   1.0174956      0.005614226    0.50641918    -0.50350832   
    233000   1.0409202      0.0058598508   0.56097597    -0.47220182   
    234000   1.0308637      0.0061855693   0.50953138    -0.51366478   
    235000   1.0326338      0.0061530613   0.56763655    -0.45731651   
    236000   1.0463216      0.0063749953   0.51326057    -0.52527846   
    237000   0.98322425     0.0047083441   0.44983615    -0.52607486   
    238000   0.9939101      0.0050204227   0.4715904     -0.51492698   
    239000   1.0110573      0.00541485     0.49337202    -0.510165     
    240000   0.98577944     0.006664847    0.4716535     -0.50679369   
    241000   0.98724849     0.0048300307   0.48317929    -0.49672603   
    242000   0.92531873     0.004497771    0.39122972    -0.52720647   
    243000   1.0074152      0.0062718448   0.47070035    -0.52922168   
    244000   0.97272016     0.0051968835   0.43996514    -0.52551991   
    245000   0.95435404     0.0056044646   0.42520694    -0.5220486    
    246000   1.0425947      0.005552568    0.48872546    -0.54611443   
    247000   0.99238262     0.0054616105   0.46417923    -0.52082203   
    248000   0.97917661     0.0068231673   0.4364011     -0.53549237   
    249000   0.95167035     0.0041795713   0.4068514     -0.5377404    
    250000   1.0470172      0.0061929091   0.5212469     -0.51798256   
    251000   0.9960822      0.0066388401   0.45874137    -0.52993196   
    252000   0.95627675     0.0047616833   0.38937153    -0.55979242   
    253000   1.0009136      0.0045748328   0.44919809    -0.54427072   
    254000   0.99318565     0.005733945    0.47622397    -0.50957435   
    255000   1.0589521      0.0062444828   0.51253865    -0.53853697   
    256000   1.0129342      0.0050212103   0.44119836    -0.56420164   
    257000   0.96385234     0.0062755091   0.40003614    -0.55664705   
    258000   1.025365       0.0056484952   0.46806691    -0.54967145   
    259000   1.0707514      0.0048227666   0.50372445    -0.55906266   
    260000   0.93447161     0.0069841131   0.37158795    -0.55593304   
    261000   1.0229572      0.0058789518   0.48549877    -0.52984966   
    262000   0.94255876     0.0058897198   0.39058709    -0.5449609    
    263000   1.0190859      0.0057461348   0.49722831    -0.51427759   
    264000   0.93358646     0.005118631    0.42277811    -0.50386431   
    265000   0.99608811     0.0066443989   0.42961602    -0.55906318   
    266000   1.0060235      0.0055203862   0.46385485    -0.53468587   
    267000   0.99099552     0.0065238992   0.4635567     -0.52006778   
    268000   1.0619643      0.0068090437   0.50357705    -0.5504883    
    269000   1.0592765      0.0061107316   0.50368239    -0.54771518   
    270000   1.0669001      0.0063621641   0.49495113    -0.56401333   
    271000   1.0438587      0.0061792264   0.46526554    -0.57082894   
    272000   0.98861197     0.0062160518   0.43719915    -0.54405951   
    273000   0.99916018     0.0063275954   0.43389028    -0.55783814   
    274000   1.0048938      0.0071957773   0.44445165    -0.55296774   
    275000   0.93636602     0.005623161    0.34944991    -0.57995141   
    276000   0.99796865     0.0059883485   0.43136801    -0.55917774   
    277000   1.0300243      0.0050847568   0.4740871     -0.54827588   
    278000   0.98021683     0.0055302351   0.40985504    -0.56307092   
    279000   0.96367878     0.0055984982   0.39500842    -0.5615025    
    280000   1.105521       0.0064501602   0.55589507    -0.54140301   
    281000   1.0617473      0.0048579003   0.51045614    -0.54339386   
    282000   1.0489495      0.0052489669   0.47981879    -0.56132859   
    283000   1.0027919      0.0063216293   0.42470117    -0.57063191   
    284000   0.93299222     0.0061910122   0.35940163    -0.56665097   
    285000   0.98272012     0.0055439045   0.40582346    -0.56958717   
    286000   0.89816633     0.0048500696   0.3250124     -0.56647335   
    287000   1.0104671      0.005832827    0.41223829    -0.59071298   
    288000   0.96175597     0.0061333766   0.34945333    -0.60514909   
    289000   1.0097861      0.0060207893   0.40376456    -0.59851076   
    290000   1.0348363      0.0058976434   0.45771029    -0.56942887   
    291000   0.96732329     0.0041680148   0.37238369    -0.58774464   
    292000   1.0975621      0.0060301594   0.4827314     -0.60666705   
    293000   0.96033447     0.0051873727   0.36339603    -0.58979545   
    294000   1.0141635      0.0055940155   0.40233783    -0.60428231   
    295000   0.99284741     0.005046501    0.38746842    -0.59799418   
    296000   0.94451406     0.0060684186   0.34945169    -0.58803706   
    297000   0.96219796     0.0046547532   0.37298119    -0.58205992   
    298000   1.0583975      0.0060261471   0.46735334    -0.58317182   
    299000   1.0426198      0.005534383    0.46660729    -0.56825752   
    300000   0.95813458     0.0052929709   0.40885913    -0.54214883   
    301000   1.0303446      0.0059335321   0.48711184    -0.53556905   
    302000   1.0528385      0.0053050548   0.46793788    -0.5770696    
    303000   0.91974847     0.0057675889   0.36297708    -0.54993028   
    304000   0.94940682     0.0048491036   0.37347833    -0.56886679   
    305000   0.9555797      0.0052324784   0.40852528    -0.5399468    
    306000   0.93918749     0.0064044733   0.37025482    -0.56194698   
    307000   0.96866946     0.004271498    0.41801314    -0.54345134   
    308000   0.98202666     0.0060505966   0.41416914    -0.56055319   
    309000   0.97141518     0.0053106771   0.4154618     -0.54872798   
    310000   0.96551683     0.0063105054   0.41897758    -0.53935772   
    311000   0.99277161     0.0058864555   0.46586494    -0.51952241   
    312000   0.99557824     0.0058420481   0.46482611    -0.523347     
    313000   0.95984521     0.0054018391   0.42102106    -0.5316848    
    314000   1.0996297      0.007169467    0.55426724    -0.53718343   
    315000   1.0530587      0.0052155819   0.51214372    -0.53308228   
    316000   1.0320021      0.0062475991   0.46474623    -0.55957983   
    317000   0.98765362     0.0061726651   0.44131454    -0.5389929    
    318000   0.9755264      0.0063188518   0.41382489    -0.55444553   
    319000   0.95520015     0.0059401375   0.39389795    -0.5541974    
    320000   0.95624163     0.0048462317   0.39831795    -0.55081114   
    321000   1.0540903      0.0054326004   0.49184374    -0.55440625   
    322000   0.98715899     0.0049066374   0.41469159    -0.56512489   
    323000   0.9892612      0.0048125379   0.40246204    -0.57944102   
    324000   0.99872135     0.0054183422   0.43251121    -0.55878164   
    325000   0.96987635     0.0065200517   0.4214925     -0.5411699    
    326000   1.0443586      0.005750577    0.48491339    -0.55167729   
    327000   0.95904381     0.0063871096   0.40639516    -0.54551527   
    328000   0.98267609     0.0058330195   0.43326701    -0.54209991   
    329000   1.0386961      0.0064736568   0.4646798     -0.56629044   
    330000   1.0181752      0.0062977652   0.45821779    -0.55238417   
    331000   0.9992584      0.0054935287   0.43626502    -0.55556089   
    332000   0.99490982     0.0052238584   0.45611979    -0.53138987   
    333000   1.0699358      0.0063645708   0.51625949    -0.54571814   
    334000   1.0505889      0.0060226464   0.48552481    -0.55724982   
    335000   0.97431431     0.0055438707   0.42867655    -0.5383908    
    336000   0.95596041     0.0052771813   0.40996375    -0.53888621   
    337000   0.94504551     0.0064417608   0.38296954    -0.55504671   
    338000   0.99796367     0.0058822459   0.42751021    -0.56303059   
    339000   1.0027168      0.0058129288   0.4345836     -0.56067498   
    340000   1.0209328      0.0057433319   0.47257018    -0.54076886   
    341000   1.0639279      0.0049895821   0.47884959    -0.57716484   
    342000   0.93632975     0.0053061443   0.34451935    -0.58484596   
    343000   1.0019267      0.0045821474   0.41927604    -0.57519828   
    344000   1.0006693      0.0063715004   0.41311571    -0.58011063   
    345000   1.0015405      0.0053884361   0.41866856    -0.57542249   
    346000   1.0860609      0.0072166091   0.4861522     -0.59183058   
    347000   0.94163644     0.0050119333   0.35479331    -0.57983923   
    348000   1.0009633      0.0057791035   0.39585439    -0.5976637    
    349000   0.98518647     0.0064352176   0.39996008    -0.57789856   
    350000   1.0500209      0.0049621727   0.43059617    -0.61161467   
    351000   0.98651129     0.0036192424   0.39578051    -0.5833931    
    352000   0.9838097      0.0050918304   0.37536195    -0.60113016   
    353000   0.99818408     0.0054236465   0.39205453    -0.59870505   
    354000   1.0689077      0.0050982153   0.45327989    -0.60767731   
    355000   1.042899       0.0050272853   0.45156236    -0.58357949   
    356000   1.0317321      0.00572936     0.44407189    -0.57998618   
    357000   0.9455903      0.0052659363   0.37876329    -0.5597937    
    358000   0.99555199     0.0052772876   0.39517795    -0.5929691    
    359000   0.97297222     0.0047918774   0.38980935    -0.57592589   
    360000   1.0079919      0.0039302388   0.40290795    -0.59758651   
    361000   0.96013573     0.0059334225   0.35138426    -0.60160997   
    362000   0.97085094     0.0065899461   0.37190479    -0.59172495   
    363000   0.97893238     0.0053669435   0.36324882    -0.60840225   
    364000   0.952387       0.0041057715   0.3336529     -0.61165023   
    365000   1.0561903      0.0059830766   0.47081072    -0.57752364   
    366000   1.0078842      0.0056206904   0.39562297    -0.60476453   
    367000   1.0323071      0.0063547754   0.46192357    -0.56270524   
    368000   0.95798188     0.004346876    0.37566291    -0.57519349   
    369000   1.0193195      0.006411473    0.44157953    -0.57015828   
    370000   1.0273292      0.0060948716   0.49834938    -0.52133851   
    371000   1.0246699      0.0060622586   0.46172018    -0.55532823   
    372000   0.97305485     0.0040488809   0.38796089    -0.57785637   
    373000   0.9830367      0.0060001497   0.4012663     -0.57445856   
    374000   0.90017101     0.0043202831   0.32323069    -0.57024483   
    375000   0.99315889     0.007334008    0.38884368    -0.59692808   
    376000   0.97595842     0.0055421102   0.40685092    -0.5618483    
    377000   0.95919334     0.0061732933   0.38162164    -0.57043721   
    378000   1.0448733      0.0056478865   0.46503876    -0.57206274   
    379000   0.9945044      0.0053899411   0.4035191     -0.58358816   
    380000   1.049805       0.0062364653   0.45693353    -0.585063     
    381000   0.97439404     0.0060276202   0.38070867    -0.58643781   
    382000   1.049223       0.0057465398   0.45051231    -0.59090652   
    383000   0.94904135     0.005188189    0.34435934    -0.59762302   
    384000   0.98442765     0.0065183199   0.36696141    -0.61014406   
    385000   1.0554523      0.0053473281   0.48961582    -0.55798603   
    386000   1.0009135      0.006500473    0.38206284    -0.61140586   
    387000   0.96372601     0.006450894    0.33700951    -0.61954829   
    388000   1.0201386      0.005292819    0.45232558    -0.56022521   
    389000   1.0919623      0.0059550086   0.47977429    -0.60406594   
    390000   0.95377361     0.0059259897   0.36777119    -0.57890824   
    391000   0.99217192     0.005972342    0.41150106    -0.57329107   
    392000   0.9986587      0.0053823165   0.39523191    -0.59599875   
    393000   1.0580536      0.0060986238   0.50999361    -0.54019019   
    394000   0.9451452      0.0057050392   0.37877855    -0.55933664   
    395000   1.0103212      0.0062325648   0.45007673    -0.55272971   
    396000   1.0347766      0.0052020899   0.46434923    -0.56273069   
    397000   0.95023758     0.0050440049   0.37768696    -0.56548274   
    398000   0.99699949     0.0058192533   0.42266259    -0.5669212    
    399000   1.0396669      0.0050351091   0.45825924    -0.57367458   
    400000   1.017706       0.0051553748   0.42036942    -0.58976685   
    401000   1.0977585      0.0074475171   0.50955712    -0.58003619   
    402000   1.0182077      0.0062217244   0.43700195    -0.57363234   
    403000   1.0005842      0.0052745827   0.42822599    -0.56491583   
    404000   0.9234139      0.0041296465   0.34341203    -0.5731335    
    405000   0.99183728     0.005557108    0.41587397    -0.568586     
    406000   0.94376239     0.0050607627   0.35119392    -0.58554875   
    407000   0.98370025     0.0065801051   0.40750768    -0.56887579   
    408000   0.94906493     0.0036213226   0.36783799    -0.57416778   
    409000   1.0947409      0.0067886312   0.51948292    -0.56711531   
    410000   1.0057111      0.0060231294   0.4319252     -0.56630541   
    411000   0.9883703      0.0059196977   0.41544244    -0.56557635   
    412000   1.0327201      0.0058086841   0.44567933    -0.57935934   
    413000   0.94384846     0.0042015294   0.3562824     -0.5805457    
    414000   1.0077234      0.0065911198   0.41963594    -0.58059201   
    415000   0.98718265     0.0056427413   0.43149575    -0.54834422   
    416000   0.94735398     0.0066961513   0.35523349    -0.58507406   
    417000   1.0678869      0.0072333582   0.48111022    -0.5788337    
    418000   1.0382734      0.0069219209   0.46354512    -0.56700563   
    419000   1.0168292      0.0058151322   0.44454342    -0.56472259   
    420000   0.99541742     0.0054504083   0.42315135    -0.56486214   
    421000   1.0319318      0.0075903958   0.44049427    -0.58376205   
    422000   1.0408727      0.0051870491   0.43388561    -0.5992451    
    423000   1.0416668      0.0054721489   0.45056143    -0.58335749   
    424000   1.0025556      0.0060845181   0.41697694    -0.57812167   
    425000   0.9646714      0.0050329901   0.37756427    -0.57993189   
    426000   0.97015884     0.0040308723   0.37399113    -0.58895165   
    427000   1.0011812      0.0054194402   0.42414764    -0.56958677   
    428000   1.0164472      0.0076677015   0.44187113    -0.5670157    
    429000   0.99858679     0.0058053757   0.39412439    -0.59703489   
    430000   0.947109       0.0061410819   0.33436527    -0.60569912   
    431000   0.97785763     0.0055162637   0.37980422    -0.59078009   
    432000   1.0343631      0.0062709492   0.46499901    -0.56167052   
    433000   1.0592638      0.0056771869   0.45497591    -0.59640909   
    434000   1.0468658      0.0068780458   0.44028085    -0.5987983    
    435000   0.9934753      0.0060475796   0.39014637    -0.59593945   
    436000   0.9987843      0.0042478228   0.42022984    -0.57112548   
    437000   0.98017605     0.0038803131   0.37124731    -0.60163817   
    438000   0.95461632     0.0050285812   0.36352139    -0.58399448   
    439000   1.0061249      0.0062366645   0.42506272    -0.57357863   
    440000   0.96881555     0.005634931    0.37654793    -0.58506155   
    441000   0.98161271     0.0057208708   0.38483197    -0.58947949   
    442000   1.0636564      0.0070658158   0.47348273    -0.58226218   
    443000   1.0251722      0.0055265367   0.44640476    -0.5711422    
    444000   0.99994363     0.0059205572   0.39541037    -0.59709566   
    445000   1.087042       0.0054653784   0.5068657     -0.5720909    
    446000   0.9566126      0.0052791502   0.35283075    -0.59666655   
    447000   0.99223951     0.0067300287   0.37433302    -0.61052619   
    448000   1.021884       0.0051572145   0.37175878    -0.64252447   
    449000   1.0607191      0.0060054056   0.44750924    -0.60532017   
    450000   0.96845237     0.0039138765   0.34008523    -0.62116378   
    451000   0.98622639     0.0062054592   0.3677749     -0.61111593   
    452000   0.96265644     0.0058364262   0.32947034    -0.62602585   
    453000   0.98953497     0.0063670467   0.35667181    -0.62550298   
    454000   0.98997964     0.0064032251   0.36564939    -0.61696676   
    455000   0.9914623      0.0064437561   0.35294903    -0.63113875   
    456000   1.0217851      0.0056260094   0.38197777    -0.63220726   
    457000   1.0306345      0.0054345753   0.38124159    -0.64172703   
    458000   0.95942557     0.0071348987   0.32300421    -0.62928513   
    459000   0.99637297     0.0062532643   0.36774312    -0.62121881   
    460000   1.0565944      0.0058343186   0.42286873    -0.6258667    
    461000   1.0751301      0.0068954309   0.4205486     -0.64658466   
    462000   1.094012       0.0057278038   0.46712137    -0.61875334   
    463000   1.0273643      0.0054765386   0.40486832    -0.61485445   
    464000   1.0092341      0.0045183379   0.39637332    -0.60535405   
    465000   1.050639       0.0054840906   0.44844002    -0.59438431   
    466000   0.93852664     0.0051759849   0.3333584     -0.59818747   
    467000   0.96338916     0.0046596763   0.353919      -0.60230445   
    468000   1.0127371      0.0065454149   0.39956388    -0.60564048   
    469000   1.0018091      0.0067629902   0.40038739    -0.59397022   
    470000   0.99074808     0.0058172185   0.40332195    -0.58005693   
    471000   1.0146116      0.0058721983   0.40546753    -0.60159738   
    472000   1.0231925      0.0060919496   0.41996619    -0.59561581   
    473000   0.98654999     0.0054695779   0.37563912    -0.60357289   
    474000   1.047108       0.0048520239   0.45478478    -0.58453484   
    475000   1.0460037      0.0053798796   0.4254056     -0.61281791   
    476000   1.0138278      0.0058631609   0.42820701    -0.57807995   
    477000   1.0564676      0.0061958729   0.45843198    -0.59017756   
    478000   0.9977079      0.0045975113   0.38854971    -0.60173723   
    479000   0.932756       0.0055127214   0.30008866    -0.62572948   
    480000   1.0370155      0.0057402501   0.4420698     -0.5872324    
    481000   0.96621223     0.004432932    0.37250964    -0.58651588   
    482000   1.0014803      0.005606547    0.43058157    -0.56344971   
    483000   1.0272124      0.0055221314   0.41132563    -0.60824631   
    484000   0.93624407     0.005979378    0.33944352    -0.58983674   
    485000   1.0267894      0.0054691951   0.44595       -0.57320214   
    486000   0.97503052     0.0065261958   0.35597155    -0.61180668   
    487000   0.90122057     0.0038812068   0.30457443    -0.58994284   
    488000   0.96042425     0.0051382311   0.34160729    -0.61167331   
    489000   0.98605063     0.0048507408   0.37545828    -0.60325809   
    490000   0.97132259     0.0044599376   0.34393592    -0.62016196   
    491000   1.0166073      0.0058956252   0.38677999    -0.62226574   
    492000   0.96995138     0.0048764862   0.35720321    -0.60553366   
    493000   1.0289097      0.00644965     0.40525854    -0.61599811   
    494000   0.95736225     0.0055006203   0.3361742     -0.61406717   
    495000   0.98668529     0.0055826947   0.36605154    -0.61329477   
    496000   0.99859658     0.0050230653   0.37059919    -0.62056982   
    497000   0.91482592     0.0050792932   0.27962425    -0.62839718   
    498000   1.0464777      0.0056069116   0.44821731    -0.59047667   
    499000   0.97095847     0.0054452256   0.37151841    -0.59221806   
    500000   1.0080065      0.0053296366   0.38942606    -0.61108285   
    501000   1.0916383      0.0052016427   0.48961085    -0.5939078    
    502000   1.002274       0.0047818128   0.41748898    -0.57733011   
    503000   0.99115361     0.0057627043   0.38747358    -0.59630782   
    504000   0.95819295     0.0041968404   0.3858627     -0.56520319   
    505000   1.0015794      0.0044544704   0.43211135    -0.56201826   
    506000   0.92896147     0.0054325078   0.32006381    -0.60198803   
    507000   1.0021671      0.0049768213   0.43001824    -0.56469478   
    508000   0.98128813     0.0071265025   0.42083173    -0.55315757   
    509000   0.99300361     0.0059505277   0.40491227    -0.58070536   
    510000   1.0218429      0.0058261516   0.44768934    -0.56655306   
    511000   1.0071318      0.0060143111   0.41478425    -0.58485645   
    512000   0.96659379     0.0056918136   0.3855086     -0.57389564   
    513000   0.96092033     0.005536423    0.40355248    -0.55022052   
    514000   1.0166582      0.0057881862   0.46019933    -0.54889698   
    515000   1.1042195      0.0073533344   0.53262995    -0.56337633   
    516000   1.0427372      0.0048970726   0.48323465    -0.55174665   
    517000   1.0542094      0.0053492878   0.48210361    -0.5642646    
    518000   0.94198499     0.004939955    0.35200298    -0.58297552   
    519000   1.0522258      0.0048161      0.46681359    -0.57758575   
    520000   1.0057846      0.0051727314   0.39769709    -0.60060644   
    521000   0.9595236      0.0055758502   0.34517196    -0.60721468   
    522000   1.0381384      0.006361552    0.41495722    -0.61545952   
    523000   1.027152       0.0056539022   0.39823787    -0.62127419   
    524000   0.97295827     0.0059121914   0.36216628    -0.60355511   
    525000   0.94804373     0.0055759486   0.32048478    -0.62050738   
    526000   0.96957363     0.0047815165   0.37739775    -0.58496418   
    527000   0.98006645     0.0055630329   0.32785093    -0.64492576   
    528000   0.95150435     0.0056315015   0.29844609    -0.64598096   
    529000   0.99883076     0.0051168257   0.32896081    -0.66244064   
    530000   1.0594742      0.0059555222   0.40466847    -0.64692537   
    531000   1.0301416      0.0059630336   0.36943658    -0.6530428    
    532000   0.98356211     0.0052006402   0.31525609    -0.66099028   
    533000   0.96197668     0.005916867    0.27338989    -0.68143158   
    534000   0.92523019     0.0044797199   0.26785929    -0.65048902   
    535000   0.99826166     0.0066773147   0.33926253    -0.65157404   
    536000   0.92352109     0.0053232382   0.25277408    -0.66387784   
    537000   1.0160794      0.005958814    0.35749239    -0.65102941   
    538000   1.0677598      0.0061682058   0.4216943     -0.63812349   
    539000   0.96167333     0.00666765     0.28218599    -0.6723344    
    540000   0.97930625     0.0058859374   0.28875575    -0.6832664    
    541000   0.99198539     0.006323196    0.29922274    -0.68538425   
    542000   0.96270215     0.0055562636   0.27728011    -0.67826144   
    543000   1.0577063      0.0056361936   0.3911379     -0.65870118   
    544000   1.0221978      0.0070507799   0.34487034    -0.66972432   
    545000   1.007382       0.0046839472   0.32729967    -0.67258937   
    546000   0.95374435     0.0065610938   0.28887591    -0.65777448   
    547000   1.1006136      0.0063908433   0.4412722     -0.65115498   
    548000   1.0923563      0.0062842708   0.44580493    -0.63842638   
    549000   0.92850128     0.0062860215   0.26540669    -0.65618838   
    550000   1.0100849      0.0061410686   0.34293261    -0.65963922   
    551000   0.99580567     0.0061319195   0.32730568    -0.66109317   
    552000   1.0171861      0.0069213127   0.3411059     -0.66851437   
    553000   0.95562965     0.0049355941   0.30850445    -0.64001721   
    554000   0.99586307     0.0048375013   0.33594157    -0.65251425   
    555000   1.0386709      0.0058622962   0.36305202    -0.66789319   
    556000   0.98953886     0.0054597368   0.3164558     -0.66572285   
    557000   0.99944477     0.0058433263   0.34724243    -0.64476846   
    558000   0.98254012     0.0062232546   0.29662804    -0.67860393   
    559000   0.95059765     0.0044402136   0.28212355    -0.66140355   
    560000   1.0318985      0.0058229121   0.35301175    -0.67121142   
    561000   0.93492738     0.0035330185   0.25798185    -0.66999152   
    562000   0.95907999     0.0067834587   0.28729762    -0.66464872   
    563000   1.0470456      0.0047192597   0.37789069    -0.66136701   
    564000   0.9935522      0.0067662347   0.31588397    -0.67027817   
    565000   1.0559868      0.0073824097   0.39464442    -0.65348793   
    566000   0.99321276     0.0053693004   0.3223922     -0.66343303   
    567000   1.0182163      0.0069645498   0.3402524     -0.67039034   
    568000   1.0170732      0.0047337802   0.33301074    -0.67649747   
    569000   0.97527436     0.0047741317   0.24315203    -0.72486823   
    570000   0.96076985     0.0047004774   0.22570209    -0.72792154   
    571000   0.98525376     0.0055914132   0.25222567    -0.72569975   
    572000   1.0398459      0.0053986031   0.32415181    -0.7079597    
    573000   1.0016435      0.0061796894   0.26419343    -0.72999983   
    574000   1.0610097      0.0060139742   0.3177475     -0.73537039   
    575000   0.98440061     0.0054987604   0.26793853    -0.70914009   
    576000   1.0357896      0.006076263    0.28505774    -0.74302767   
    577000   0.96898587     0.0074508818   0.21675273    -0.74502581   
    578000   1.0379533      0.0055831731   0.31040775    -0.71982525   
    579000   1.0177193      0.0063496286   0.29620721    -0.71394223   
    580000   1.050533       0.0060284441   0.31659955    -0.72611954   
    581000   0.99485627     0.0061243461   0.26241916    -0.72503735   
    582000   1.0338125      0.0055790618   0.2685632     -0.75755975   
    583000   0.97609294     0.0054084211   0.22174656    -0.74708619   
    584000   0.94215149     0.0046899198   0.1768331     -0.75831065   
    585000   1.0566917      0.0041219265   0.308695      -0.74013697   
    586000   0.97361664     0.0059316425   0.25481942    -0.71155545   
    587000   0.94834265     0.0059019508   0.2116748     -0.72961407   
    588000   0.96979675     0.0053482556   0.2658883     -0.69669509   
    589000   0.95137774     0.0046989258   0.25155014    -0.69275124   
    590000   1.0428466      0.0052794182   0.37062812    -0.66446172   
    591000   1.0081199      0.0057488122   0.3388683     -0.66175314   
    592000   0.96920037     0.0071050216   0.26304717    -0.69894427   
    593000   0.99614095     0.0051442159   0.30615656    -0.68257507   
    594000   1.01825        0.0060590355   0.29567882    -0.7149974    
    595000   1.0298388      0.0040223649   0.32417379    -0.69800509   
    596000   1.0656701      0.0063813569   0.35968298    -0.69806067   
    597000   1.0082419      0.0067076412   0.31915167    -0.68159094   
    598000   0.978445       0.0053689155   0.26009174    -0.71107558   
    599000   1.0233733      0.0054518597   0.30085763    -0.71490378   
    600000   1.0181094      0.005440682    0.31528044    -0.69525627   
    601000   1.020152       0.0052010001   0.33068294    -0.68188113   
    602000   0.97884728     0.0043953401   0.32212732    -0.64943928   
    603000   1.0118511      0.0051309701   0.29910561    -0.70521932   
    604000   0.9590068      0.0062192599   0.23865293    -0.71322076   
    605000   1.0029672      0.005473782    0.2707121     -0.72479499   
    606000   1.0208591      0.0064520299   0.28153912    -0.73172684   
    607000   0.97975891     0.0050029102   0.23593562    -0.73653583   
    608000   1.0216149      0.0056137711   0.30195745    -0.71205863   
    609000   0.9944209      0.004550701    0.25188641    -0.73513797   
    610000   0.97963271     0.0059395989   0.24335184    -0.72899435   
    611000   1.0080066      0.0063740005   0.30989622    -0.69061283   
    612000   0.96461046     0.0041469971   0.26755609    -0.68987958   
    613000   1.0186219      0.0059462459   0.30752367    -0.70352171   
    614000   1.0539497      0.0068686703   0.34496978    -0.70114058   
    615000   0.99561273     0.0054336433   0.26074674    -0.72746061   
    616000   0.95293525     0.0047117821   0.26137415    -0.68447316   
    617000   0.98955943     0.0043461402   0.29338198    -0.68881709   
    618000   0.95620198     0.0040527502   0.23085865    -0.71823108   
    619000   0.9563449      0.0055857907   0.22826851    -0.72096308   
    620000   0.96183472     0.0052163082   0.22978175    -0.72489882   
    621000   1.0055991      0.0075085713   0.26765685    -0.73046255   
    622000   1.0101195      0.0055239065   0.28986849    -0.71273777   
    623000   1.0084086      0.0049691981   0.29528354    -0.70562448   
    624000   0.97326631     0.0050925278   0.23093901    -0.73508813   
    625000   0.94473169     0.0060586013   0.21109564    -0.72660913   
    626000   0.99019845     0.005735718    0.27956496    -0.70326838   
    627000   1.0368625      0.0056984309   0.32997737    -0.69917291   
    628000   0.96390652     0.0053974869   0.24153841    -0.71519856   
    629000   1.0004216      0.0064018624   0.23564077    -0.7573397    
    630000   1.0121438      0.0061608992   0.26440823    -0.74020718   
    631000   0.94310995     0.0062058899   0.17273786    -0.76335723   
    632000   0.9504111      0.0046281034   0.18653086    -0.75681106   
    633000   0.98169721     0.00482428     0.2243653     -0.75003003   
    634000   1.0613311      0.0051049246   0.30863873    -0.74479822   
    635000   1.0264362      0.0064149917   0.27130535    -0.74749617   
    636000   0.95497946     0.0046994218   0.21188291    -0.7359934    
    637000   0.95294496     0.0060112001   0.22538398    -0.72047296   
    638000   1.0303784      0.0045774579   0.29598591    -0.72672849   
    639000   1.0258788      0.0051441015   0.25612088    -0.76212743   
    640000   0.94993498     0.0055356451   0.17809679    -0.76477255   
    641000   0.99824557     0.0050610992   0.25422484    -0.73659576   
    642000   0.96829312     0.0038773161   0.24634955    -0.71474139   
    643000   1.0170047      0.0063169698   0.29051894    -0.71892124   
    644000   1.0102379      0.0047287073   0.25019296    -0.75253081   
    645000   0.99840889     0.0040936353   0.28826401    -0.7027187    
    646000   1.0321747      0.0052928115   0.29903965    -0.72545774   
    647000   0.96349848     0.0055790109   0.26420138    -0.69213058   
    648000   0.97041024     0.0042662253   0.24872261    -0.7144697    
    649000   1.0085483      0.0064525772   0.25302888    -0.74801786   
    650000   0.98523121     0.0059412874   0.25192015    -0.72598289   
    651000   1.0018815      0.0052398543   0.28448593    -0.70994354   
    652000   1.0436682      0.0060358838   0.30920336    -0.72670199   
    653000   1.0042628      0.0054390365   0.28649198    -0.71030108   
    654000   1.0030668      0.0053946094   0.26565515    -0.7299508    
    655000   0.91632478     0.0038312316   0.19217555    -0.71733359   
    656000   0.9795558      0.0053412215   0.23642427    -0.73584558   
    657000   0.98270701     0.0044869384   0.26689542    -0.7085022    
    658000   1.0254736      0.005589007    0.28194756    -0.7358985    
    659000   1.0159896      0.006229813    0.27173387    -0.73669881   
    660000   0.9804673      0.005722251    0.27003967    -0.70313489   
    661000   0.98988164     0.0062889762   0.20031779    -0.78220109   
    662000   0.93330089     0.0045228863   0.2007734     -0.72558558   
    663000   1.0028372      0.0051310499   0.25351642    -0.74186168   
    664000   1.0205304      0.0065708216   0.26436552    -0.74857418   
    665000   1.0105636      0.0063934839   0.26876713    -0.7342799    
    666000   0.94864396     0.0050782137   0.18649406    -0.75509387   
    667000   1.0358374      0.0061473878   0.29840695    -0.72972591   
    668000   0.9608613      0.0052234099   0.23046306    -0.72325134   
    669000   1.0119773      0.0057724123   0.24199182    -0.7624584    
    670000   0.98521939     0.0061685925   0.23673144    -0.74115987   
    671000   0.97907326     0.0041788046   0.23262754    -0.73916335   
    672000   1.051182       0.0063583678   0.3534347     -0.68992858   
    673000   1.0804301      0.0052828747   0.38950269    -0.68289112   
    674000   0.98388147     0.0064887571   0.25582332    -0.72074003   
    675000   1.0311864      0.0050337051   0.28705165    -0.73646479   
    676000   0.94345558     0.0049783347   0.22920431    -0.70723382   
    677000   1.0149515      0.0059583453   0.28790786    -0.71949438   
    678000   1.0385781      0.0052589216   0.33846229    -0.69239083   
    679000   0.99451718     0.0040619752   0.2579762     -0.72914374   
    680000   1.0070399      0.0049061923   0.28138456    -0.71816497   
    681000   0.95891004     0.0056422189   0.24821659    -0.70356106   
    682000   0.88750459     0.0044619204   0.16930388    -0.71159944   
    683000   0.97592763     0.006747122    0.21642495    -0.75224371   
    684000   1.0588711      0.0055628123   0.31446474    -0.73653046   
    685000   0.95943245     0.005508417    0.20606619    -0.74622998   
    686000   0.95595532     0.0065605453   0.21973738    -0.72910753   
    687000   0.96872793     0.0056065056   0.20715497    -0.75436755   
    688000   1.0320915      0.0062586393   0.27660968    -0.74780514   
    689000   1.0154069      0.005536145    0.28223349    -0.72562077   
    690000   0.99614465     0.0048587889   0.23691032    -0.75182499   
    691000   0.98926622     0.0049357521   0.25304972    -0.72885831   
    692000   0.98942003     0.0073490581   0.24861708    -0.73344362   
    693000   1.0311614      0.0058503845   0.2993065     -0.72418513   
    694000   0.99039177     0.0045064849   0.25299988    -0.73002534   
    695000   0.95054843     0.0044834786   0.22716692    -0.71631132   
    696000   1.0745611      0.0077237585   0.33107134    -0.73549711   
    697000   0.97520265     0.0064029306   0.27328041    -0.69466867   
    698000   0.95365474     0.0044636746   0.20924712    -0.73731432   
    699000   1.0130369      0.0056680074   0.2755137     -0.72998825   
    700000   1.0098232      0.005391198    0.24919633    -0.75311583   
    701000   1.0266007      0.0047408563   0.31406759    -0.70489722   
    702000   1.0402991      0.0049291817   0.30053979    -0.73202153   
    703000   1.0565848      0.0057464092   0.32947949    -0.71924639   
    704000   1.0354782      0.0066426752   0.28129547    -0.74648087   
    705000   1.0533418      0.0059389672   0.32437739    -0.72112964   
    706000   1.0186831      0.0056007941   0.28913516    -0.72197098   
    707000   1.0901924      0.0072162689   0.38390138    -0.69818212   
    708000   0.95784082     0.0060142984   0.22417638    -0.72654001   
    709000   0.97017702     0.0065750424   0.22246868    -0.74049215   
    710000   1.0031281      0.0048673275   0.28664965    -0.70901717   
    711000   1.0527723      0.0049761429   0.32530482    -0.7196369    
    712000   1.0228944      0.0064114277   0.26375242    -0.75153367   
    713000   1.0509089      0.0060698596   0.35307399    -0.69001822   
    714000   1.0097633      0.0061379249   0.23829179    -0.76396092   
    715000   0.99381103     0.0054665271   0.27444281    -0.71197623   
    716000   0.99076753     0.0062762814   0.29288563    -0.69051255   
    717000   1.0231958      0.0041241108   0.32544583    -0.6901394    
    718000   1.0392441      0.0042339029   0.34849536    -0.6830188    
    719000   0.98781577     0.0050636909   0.27682709    -0.70364129   
    720000   1.0081502      0.0048375116   0.32918229    -0.67146927   
    721000   0.95000142     0.0050023968   0.26154408    -0.68139121   
    722000   1.0203554      0.0061425279   0.32597048    -0.68679545   
    723000   0.93578106     0.0046283886   0.23970047    -0.68912023   
    724000   1.004731       0.0060840525   0.31023699    -0.68702085   
    725000   0.99045872     0.0063200212   0.30223408    -0.68085759   
    726000   1.0048287      0.0063514055   0.340205      -0.65714979   
    727000   1.0208907      0.0054541283   0.28049162    -0.7328057    
    728000   0.93625778     0.0043808646   0.20392426    -0.72536962   
    729000   1.0655992      0.0063717075   0.32641497    -0.73125833   
    730000   1.0123166      0.0067206813   0.29103015    -0.71375678   
    731000   1.0043063      0.0056884121   0.30311713    -0.69371909   
    732000   0.99411863     0.0071203408   0.26760298    -0.71912138   
    733000   0.9990534      0.0062034366   0.2698246     -0.72179783   
    734000   1.018726       0.0052288812   0.29358137    -0.71756736   
    735000   1.0223151      0.005230135    0.29574968    -0.71896142   
    736000   0.97705384     0.0062704187   0.21794661    -0.75183989   
    737000   1.0038093      0.0060834374   0.26666339    -0.72967955   
    738000   1.0427533      0.0048589657   0.32537507    -0.70962222   
    739000   1.0278374      0.0058967591   0.29323983    -0.72695248   
    740000   0.94357289     0.0050638758   0.21831824    -0.71823634   
    741000   0.98334996     0.0052629974   0.25883856    -0.71719723   
    742000   0.9128958      0.0058452285   0.18545807    -0.7206476    
    743000   1.0174912      0.0055359853   0.28374727    -0.72617577   
    744000   0.95841741     0.0061201963   0.25825024    -0.69303845   
    745000   1.0181146      0.0053119848   0.31143302    -0.69910879   
    746000   0.99369002     0.0050536511   0.29011152    -0.69618742   
    747000   0.97987519     0.0048878078   0.25676325    -0.71582361   
    748000   0.97846108     0.0059234059   0.24390665    -0.72727662   
    749000   1.0609543      0.0068256026   0.37338431    -0.67967857   
    750000   1.0283834      0.0060703484   0.31347274    -0.70726149   
    751000   1.0315947      0.0052460041   0.32305817    -0.70086356   
    752000   1.060991       0.0051803732   0.35042777    -0.70267158   
    753000   1.0730563      0.0061672312   0.38765794    -0.67741692   
    754000   1.04514        0.0049886294   0.33545827    -0.701908     
    755000   0.95426347     0.0053516264   0.27007744    -0.6770882    
    756000   0.97337455     0.004238661    0.28271827    -0.68341631   
    757000   1.0379965      0.0059749673   0.32959018    -0.70068565   
    758000   0.9214225      0.0051238262   0.19277182    -0.72179712   
    759000   0.95010224     0.005185602    0.26753527    -0.67550009   
    760000   0.95246586     0.0055344803   0.23072845    -0.71465295   
    761000   1.0972649      0.0063823288   0.39454032    -0.69456309   
    762000   1.0382209      0.0051963976   0.30761317    -0.72288547   
    763000   1.0909276      0.0067886469   0.42257636    -0.66023694   
    764000   1.0708783      0.0056942846   0.37848754    -0.68442557   
    765000   1.0016086      0.0055314348   0.32455552    -0.66960311   
    766000   0.94025134     0.0052994969   0.24251426    -0.69074347   
    767000   1.0286773      0.0057603319   0.33548854    -0.68553748   
    768000   1.0425747      0.0066387684   0.34622066    -0.6885993    
    769000   1.0091849      0.006579216    0.34849453    -0.65318399   
    770000   0.9871396      0.0057612619   0.28875307    -0.69104417   
    771000   0.95686239     0.0052255235   0.30048785    -0.64925737   
    772000   1.0089728      0.0055096208   0.33289709    -0.66857091   
    773000   0.99594252     0.0068144422   0.30219701    -0.68633767   
    774000   0.88722305     0.0042399399   0.19200817    -0.6886157    
    775000   1.0069352      0.0063587648   0.3145642     -0.68488144   
    776000   1.0413533      0.0052277448   0.33219882    -0.7014089    
    777000   1.0101636      0.0067369324   0.37430835    -0.62834161   
    778000   0.97340085     0.0049378472   0.28204477    -0.68411591   
    779000   0.99203238     0.0041530903   0.28296116    -0.70169247   
    780000   1.0884517      0.0065278291   0.4331049     -0.64725092   
    781000   1.0597519      0.0057416784   0.36823978    -0.68362972   
    782000   1.0150605      0.0058667184   0.30744729    -0.7000632    
    783000   1.0052514      0.0061590796   0.33088856    -0.66688574   
    784000   1.0220067      0.0072815455   0.31743039    -0.69697457   
    785000   1.0223884      0.006388331    0.30759107    -0.7071928    
    786000   1.0162118      0.0059414587   0.33532247    -0.67333077   
    787000   1.0053645      0.0053131457   0.34556821    -0.65231841   
    788000   1.0082805      0.0055351484   0.34148685    -0.65929407   
    789000   0.96037134     0.0053445182   0.32173811    -0.63148997   
    790000   0.9582324      0.005812593    0.30901679    -0.64208825   
    791000   1.0078641      0.0053139727   0.34201049    -0.65835713   
    792000   1.045905       0.0068970831   0.36135403    -0.67677155   
    793000   0.93566433     0.0044521016   0.25077766    -0.67792718   
    794000   0.9889368      0.006116913    0.28268792    -0.69889315   
    795000   0.9974879      0.004722933    0.30272196    -0.68734661   
    796000   0.93219861     0.0057229627   0.23912106    -0.68614384   
    797000   0.99957197     0.0043127838   0.33038614    -0.66175101   
    798000   0.98774607     0.0051893604   0.34483179    -0.63556741   
    799000   1.0176175      0.0065363159   0.34215352    -0.66789497   
    800000   1.0233935      0.0059225169   0.33768411    -0.67809733   
    801000   1.0257464      0.004923442    0.35613839    -0.66197851   
    802000   1.0622386      0.0070542321   0.39108515    -0.66325251   
    803000   1.0522619      0.0047844422   0.37711139    -0.66732381   
    804000   0.99617114     0.005173822    0.31590629    -0.67285531   
    805000   0.98169064     0.0060463583   0.31570469    -0.65868413   
    806000   0.966374       0.0052473373   0.27475664    -0.68442946   
    807000   1.0161824      0.0046397097   0.34473335    -0.66389065   
    808000   0.90836502     0.0043772721   0.24331504    -0.65829354   
    809000   1.0359686      0.0060452988   0.35003424    -0.67822886   
    810000   0.99804655     0.0061829324   0.3221576     -0.66846546   
    811000   1.0086827      0.0052820992   0.32119798    -0.67998214   
    812000   1.0493983      0.0076916701   0.38060634    -0.66098656   
    813000   0.99911876     0.0051119501   0.32592873    -0.66575857   
    814000   0.99493122     0.0043523888   0.35677592    -0.63075498   
    815000   1.0124499      0.0057384018   0.33833161    -0.66658763   
    816000   0.98722944     0.005402195    0.31511608    -0.66477033   
    817000   0.94180075     0.0059816961   0.2701479     -0.66464772   
    818000   0.96229111     0.0044689963   0.28270889    -0.67242469   
    819000   1.0400848      0.004976403    0.37480428    -0.65754433   
    820000   0.94219977     0.005447436    0.29275082    -0.64244086   
    821000   0.95399865     0.004221476    0.29033224    -0.65657055   
    822000   1.0165116      0.0054868624   0.32191718    -0.68703357   
    823000   1.0167321      0.0049650211   0.31371508    -0.69545453   
    824000   1.0626514      0.007141137    0.36288536    -0.69186205   
    825000   0.99378964     0.0054930718   0.293866      -0.69253182   
    826000   0.99988224     0.0064510459   0.32544485    -0.66700025   
    827000   0.98361412     0.0064268706   0.29717866    -0.67911933   
    828000   0.96233466     0.0052248966   0.28180381    -0.67337299   
    829000   0.98585449     0.0048593897   0.31545319    -0.6630685    
    830000   0.9738918      0.0062688264   0.28189454    -0.68475343   
    831000   0.98590529     0.0053739336   0.27416039    -0.70441171   
    832000   0.96794998     0.0048868492   0.26279074    -0.69795961   
    833000   1.0095483      0.0052344821   0.31088658    -0.69115265   
    834000   1.0134956      0.0053037819   0.32327865    -0.6826786    
    835000   0.93056679     0.005051436    0.22665255    -0.69699267   
    836000   1.0153971      0.0064363926   0.31878383    -0.68906071   
    837000   1.035552       0.006021798    0.33104963    -0.69679992   
    838000   1.0718528      0.0059471065   0.39577627    -0.66810404   
    839000   1.0288198      0.0064159208   0.28548193    -0.73568545   
    840000   1.0529354      0.0058372729   0.30264445    -0.74245921   
    841000   1.0025614      0.0056092875   0.26833138    -0.72677296   
    842000   1.0049222      0.0059972074   0.29973856    -0.69770906   
    843000   0.98086723     0.0036522235   0.28038355    -0.69318797   
    844000   0.94948791     0.0049294092   0.22654294    -0.71588266   
    845000   1.0436519      0.0057025266   0.32871176    -0.70717742   
    846000   1.0749776      0.0058779941   0.36127454    -0.70570735   
    847000   1.0481648      0.0053957025   0.34556874    -0.69479977   
    848000   1.0626759      0.0074715279   0.32601249    -0.72875923   
    849000   0.99251917     0.00525243     0.28573362    -0.69940318   
    850000   1.0968386      0.0052914522   0.39568462    -0.69299566   
    851000   1.0018728      0.0058935561   0.31523155    -0.67918927   
    852000   0.98308381     0.0047909305   0.28593595    -0.68983567   
    853000   0.9661565      0.0063425609   0.26474751    -0.6942227    
    854000   1.0103005      0.0053886533   0.31606144    -0.68672443   
    855000   0.96370203     0.0065622495   0.25518989    -0.70134411   
    856000   1.0535667      0.0061760377   0.37080606    -0.67492422   
    857000   0.91147851     0.0054440629   0.22786676    -0.67683216   
    858000   1.0377819      0.0055342235   0.33327992    -0.69678294   
    859000   0.96365797     0.0062397065   0.2802359     -0.67625437   
    860000   1.0031301      0.005446468    0.32784965    -0.66781912   
    861000   1.0183216      0.0055407113   0.33437237    -0.6763749    
    862000   1.0264882      0.0055039207   0.3163513     -0.70250189   
    863000   0.99958283     0.0050262059   0.30240712    -0.68974079   
    864000   1.0212173      0.0051864557   0.38877108    -0.62485039   
    865000   1.004223       0.0049486412   0.35414418    -0.64260938   
    866000   1.0298402      0.0067044981   0.36258865    -0.65959162   
    867000   0.9649631      0.0048684474   0.29801871    -0.65976698   
    868000   1.0086468      0.0051368245   0.35527254    -0.64587189   
    869000   0.99742107     0.0054430337   0.34373809    -0.64626415   
    870000   0.97993352     0.0056149201   0.31375492    -0.65888985   
    871000   0.88755982     0.003976307    0.25331232    -0.62764582   
    872000   1.0295667      0.0062698322   0.36266089    -0.65924789   
    873000   1.0194593      0.0059100709   0.3667054     -0.64517113   
    874000   1.0001047      0.0051688131   0.35550518    -0.63716076   
    875000   1.0448258      0.0066677688   0.381537      -0.65551737   
    876000   0.9950663      0.0046479944   0.31805477    -0.66961021   
    877000   1.0574071      0.0065641779   0.39954558    -0.64999647   
    878000   0.95447076     0.0065214711   0.31929555    -0.62807583   
    879000   0.96424796     0.005895211    0.35493654    -0.60213933   
    880000   0.97547387     0.0042176852   0.33754034    -0.63067794   
    881000   0.94500118     0.0044031809   0.32169708    -0.61627517   
    882000   1.0306213      0.0057782161   0.41761684    -0.60533864   
    883000   0.93645944     0.0045468746   0.3273433     -0.60215074   
    884000   0.95105163     0.0050984859   0.31822597    -0.62575172   
    885000   1.0776032      0.005800311    0.4388975     -0.63069045   
    886000   0.96729422     0.0049976877   0.34209355    -0.61800592   
    887000   0.99923777     0.0064477486   0.37612193    -0.61568349   
    888000   1.029802       0.0060738797   0.39585126    -0.62629103   
    889000   0.99909728     0.0047495563   0.33925298    -0.65241299   
    890000   0.96862664     0.0053457438   0.34090957    -0.6205124    
    891000   0.98944689     0.003956844    0.37983052    -0.60225685   
    892000   0.98287915     0.0051925866   0.35566282    -0.61990566   
    893000   1.0689777      0.0065188147   0.4220855     -0.63894112   
    894000   1.0476898      0.0046737581   0.40163373    -0.63826334   
    895000   1.0341411      0.0042963001   0.41124477    -0.61520437   
    896000   0.97703183     0.0069009045   0.34182378    -0.62794087   
    897000   0.97904581     0.0059668793   0.332868      -0.63889565   
    898000   1.0329544      0.00537455     0.36322413    -0.66204712   
    899000   1.0046179      0.0062161589   0.35429936    -0.64284622   
    900000   1.0138033      0.0052096435   0.3477782     -0.65848438   
    901000   0.96421999     0.0043398232   0.30884623    -0.64820187   
    902000   1.0633705      0.0052569661   0.38477538    -0.6706858    
    903000   1.0067628      0.006234948    0.33835796    -0.66091648   
    904000   1.0360258      0.0060732185   0.36145947    -0.66686035   
    905000   1.0317785      0.0052198059   0.39850944    -0.62559469   
    906000   1.0041314      0.0050730573   0.35443407    -0.64222858   
    907000   1.0031155      0.0054209943   0.3386477     -0.6570066    
    908000   0.95680468     0.0062088202   0.32046738    -0.62922057   
    909000   1.0226987      0.0049889065   0.36599965    -0.64909216   
    910000   1.0284764      0.0055587301   0.37071521    -0.65011138   
    911000   1.0004169      0.0061602383   0.32576236    -0.66721347   
    912000   1.0815674      0.0059086524   0.41173678    -0.66178591   
    913000   0.94706848     0.0044933789   0.27291469    -0.66710948   
    914000   1.0079463      0.0048179813   0.34234812    -0.6581011    
    915000   0.99548208     0.0047515329   0.31165459    -0.67642307   
    916000   1.0615036      0.0057946728   0.35798989    -0.69561822   
    917000   1.0227848      0.0040755535   0.32878179    -0.68639552   
    918000   0.9846312      0.0057619388   0.26387495    -0.71343254   
    919000   1.0094906      0.0054088829   0.27996167    -0.72202029   
    920000   0.96170663     0.0066186723   0.23772011    -0.71683333   
    921000   1.0764888      0.0068437996   0.36532876    -0.70315315   
    922000   0.98808668     0.00584295     0.27873055    -0.70200672   
    923000   1.0084561      0.0043845116   0.27596461    -0.72499054   
    924000   0.98978909     0.0048369947   0.27002481    -0.71240221   
    925000   1.1651605      0.0064466885   0.43805274    -0.71844129   
    926000   1.0132207      0.005286535    0.31198677    -0.69369755   
    927000   1.0086735      0.0065569653   0.30120538    -0.69996555   
    928000   0.95584644     0.0053315278   0.26673845    -0.6819984    
    929000   0.96997179     0.0057712216   0.24522808    -0.71752905   
    930000   1.0214957      0.0055432327   0.34230351    -0.67159433   
    931000   0.90029023     0.0052812281   0.19555717    -0.69803669   
    932000   0.9822681      0.0057198954   0.29650449    -0.67845748   
    933000   1.0118197      0.0067655354   0.33364945    -0.67064436   
    934000   1.0024003      0.006460974    0.31776648    -0.67717791   
    935000   0.93352492     0.0042258956   0.24846463    -0.67811672   
    936000   0.99222404     0.0073782195   0.2805399     -0.70430396   
    937000   0.9937389      0.0068724017   0.25657081    -0.72977664   
    938000   0.96411822     0.0050094543   0.22377873    -0.73316836   
    939000   0.91074288     0.0049618008   0.19372986    -0.7102389    
    940000   0.99450825     0.004158267    0.2820366     -0.70507448   
    941000   0.99893199     0.0044593593   0.31705434    -0.67444758   
    942000   1.0430955      0.0058308472   0.32241611    -0.71292082   
    943000   0.9138546      0.004634955    0.20004736    -0.70700997   
    944000   0.98450503     0.0062071063   0.2713931     -0.70578916   
    945000   1.0359597      0.0060241754   0.3277973     -0.70045694   
    946000   1.0044542      0.0063365442   0.30131421    -0.69566879   
    947000   0.99392948     0.0050546258   0.28360541    -0.7029312    
    948000   1.0581939      0.0071138945   0.33815828    -0.71216475   
    949000   0.94065821     0.0044613783   0.23856195    -0.69509963   
    950000   1.0477027      0.0063430835   0.33300017    -0.70690966   
    951000   0.97171339     0.0058949655   0.29928888    -0.66519689   
    952000   1.0196319      0.0054925554   0.33806595    -0.67398188   
    953000   1.021868       0.0060549849   0.29083422    -0.72343314   
    954000   1.0778078      0.0055322166   0.39655493    -0.67323614   
    955000   1.0166413      0.0049831805   0.33045516    -0.67862438   
    956000   1.0375031      0.0057432346   0.33498323    -0.69480286   
    957000   1.0164766      0.0060352628   0.296269      -0.71264703   
    958000   0.95951076     0.0053782866   0.25885003    -0.69352387   
    959000   1.045241       0.0056397781   0.3247994     -0.7126671    
    960000   1.0285819      0.0062719751   0.31328808    -0.70764322   
    961000   1.0041257      0.0044287641   0.27516056    -0.72149643   
    962000   0.97157755     0.0051264091   0.26940878    -0.69494216   
    963000   0.9919649      0.006294819    0.2667566     -0.71783005   
    964000   0.96330781     0.0062690615   0.28169427    -0.67444844   
    965000   1.0762766      0.0054491581   0.33958817    -0.72868305   
    966000   1.0199812      0.0054358014   0.318643      -0.69375152   
    967000   1.0245906      0.0055827522   0.31588746    -0.7010822    
    968000   0.98640571     0.0063341109   0.25032931    -0.7287395    
    969000   0.98188212     0.0058653148   0.29739916    -0.6771797    
    970000   1.0703078      0.0054694553   0.3596175     -0.70272933   
    971000   0.99804862     0.0051541217   0.31781851    -0.67280661   
    972000   1.0853146      0.0060196211   0.36057595    -0.7166661    
    973000   1.0547925      0.0057510715   0.35261742    -0.69432951   
    974000   0.95034791     0.0048065053   0.28736038    -0.65591883   
    975000   0.9823886      0.0066988936   0.28922797    -0.68585361   
    976000   1.0007054      0.0058718456   0.2789014     -0.71436071   
    977000   1.0135605      0.0059654487   0.30849338    -0.69752827   
    978000   0.93813742     0.0051686107   0.22072387    -0.71043566   
    979000   0.96561378     0.0046662686   0.23361658    -0.72481495   
    980000   0.9666378      0.0051919527   0.25670361    -0.70274432   
    981000   1.0166977      0.0071532804   0.32129783    -0.6878376    
    982000   0.99938957     0.0060563781   0.33190337    -0.66005272   
    983000   1.0175391      0.005355337    0.31049818    -0.69947241   
    984000   0.97712829     0.0050744835   0.27113672    -0.69872366   
    985000   1.0315022      0.0060972468   0.30870838    -0.71512146   
    986000   1.0696923      0.0064916509   0.33782747    -0.72390847   
    987000   0.97788767     0.0059037746   0.27546362    -0.69515051   
    988000   0.98744095     0.0058037961   0.2801861     -0.69991024   
    989000   1.0960318      0.0069363907   0.41397679    -0.67390268   
    990000   1.0142934      0.0076766041   0.3322847     -0.67446434   
    991000   0.95927388     0.0033345212   0.24639502    -0.70574376   
    992000   0.9874585      0.0055760127   0.27677368    -0.70334008   
    993000   0.96348915     0.0066121083   0.22911536    -0.72720734   
    994000   0.93960289     0.0053682607   0.23407195    -0.69854215   
    995000   0.97131396     0.0047763558   0.24300313    -0.72108618   
    996000   1.0092229      0.0059423018   0.27697052    -0.72474575   
    997000   1.0124595      0.0062245297   0.28261464    -0.72231419   
    998000   1.033707       0.0045336019   0.27306532    -0.75295292   
    999000   0.96007762     0.0065184095   0.2343388     -0.71859775   
   1000000   0.97168119     0.0059140698   0.25108419    -0.71336962   
Loop time of 33.8341 on 1 procs for 1000000 steps with 605 atoms

Performance: 25536376.056 tau/day, 29555.991 timesteps/s
98.3% CPU use with 1 MPI tasks x no OpenMP threads

MPI task timing breakdown:
Section |  min time  |  avg time  |  max time  |%varavg| %total
---------------------------------------------------------------
Pair    | 3.0408     | 3.0408     | 3.0408     |   0.0 |  8.99
Bond    | 0.047944   | 0.047944   | 0.047944   |   0.0 |  0.14
Neigh   | 9.2697     | 9.2697     | 9.2697     |   0.0 | 27.40
Comm    | 1.4567     | 1.4567     | 1.4567     |   0.0 |  4.31
Output  | 0.56417    | 0.56417    | 0.56417    |   0.0 |  1.67
Modify  | 17.287     | 17.287     | 17.287     |   0.0 | 51.09
Other   |            | 2.167      |            |       |  6.41

Nlocal:            605 ave         605 max         605 min
Histogram: 1 0 0 0 0 0 0 0 0 0
Nghost:             87 ave          87 max          87 min
Histogram: 1 0 0 0 0 0 0 0 0 0
Neighs:            187 ave         187 max         187 min
Histogram: 1 0 0 0 0 0 0 0 0 0

Total # of neighbors = 187
Ave neighs/atom = 0.30909091
Ave special neighs/atom = 0
Neighbor list builds = 218375
Dangerous builds = 0
Total wall time: 0:00:33
