fix fLANG all langevin 1.0 1.0 1.0 100
neigh_modify exclude molecule/intra all
fix rigidNVE linked_vesicle rigid/nve molecule
  1 rigid bodies with 5 atoms
fix NVE synapsin nve 1.0 1.0 1.0

    ##======================================##
    ## Output
    ##======================================##

thermo 1000
thermo_style custom step temp press etotal epair
thermo_modify flush yes
timestep 0.01

    ##======================================##
    ## Equilibration before output
    ##======================================##


    ##======================================##
    ## Run with output
    ##======================================##

fix enforce_2d all enforce2d
dump 2 all custom 1000 Results_eps_attr1_eps_rep1_eps_rep_weak0.1_range2_attr_with_repFalse_n_synapsin400_n_vesicles1/Movie_2d_eps_attr1_eps_rep1_eps_rep_weak0.1_range2_attr_with_repFalse_n_synapsin400_n_vesicles1.xyz id type mol x y z
run 1000000
Generated 0 of 3 mixed pair_coeff terms from geometric mixing rule
Neighbor list info ...
  update every 1 steps, delay 1 steps, check yes
  max neighbors/atom: 2000, page size: 100000
  master list distance cutoff = 11.52462
  ghost atom cutoff = 11.52462
  binsize = 5.7623102, bins = 55 55 1
  1 neighbor lists, perpetual/occasional/extra = 1 0 0
  (1) pair cosine/squared, perpetual
      attributes: half, newton on
      pair build: half/bin/newton
      stencil: half/bin/2d
      bin: standard
Per MPI rank memory allocation (min/avg/max) = 8.526 | 8.526 | 8.526 Mbytes
   Step          Temp          Press          TotEng         E_pair    
         0   0.99441908    -0.013071225    0.98336998     0            
      1000   1.052877       0.0040548885   1.0411809      2.5044906e-06
      2000   0.97902644     0.0030040622   0.96849889     0.00035052091
      3000   1.0601207      0.0035583022   1.0483416      0            
      4000   1.0466423      0.0043625821   1.0350129      0            
      5000   1.0005436      0.0035020426   0.98945454     2.8061539e-05
      6000   0.97028404     0.0030784247   0.95950311     0            
      7000   0.9429228      0.0035389451   0.9342467      0.001800821  
      8000   1.070792       0.0042930144   1.0588943      0            
      9000   1.099818       0.0040939823   1.0875978      0            
     10000   1.0642281      0.0047822672   1.0522943     -0.00010900216
     11000   0.96178959     0.0044415766   0.95110304     0            
     12000   0.92916975     0.0051590929   0.91884564     0            
     13000   0.95744614     0.0032930553   0.94680785     0            
     14000   1.0668056      0.0043959485   1.0549522      0            
     15000   0.96360374     0.0036246317   0.95289703     0            
     16000   0.96130727     0.0043097898   0.94951498    -0.0011110987 
     17000   1.0101759      0.0035232634   0.9969045     -0.002047257  
     18000   1.0807312      0.0044043049   1.0688401      0.00011702663
     19000   1.0034561      0.0033971737   0.99234017     3.3587325e-05
     20000   0.99001945     0.0042569548   0.9788899     -0.00012933049
     21000   0.95841191     0.0039802587   0.94653036    -0.0012325296 
     22000   0.90084344     0.004052006    0.89091188     7.7812503e-05
     23000   0.90885848     0.0044413434   0.89701157    -0.0017484806 
     24000   0.94500127     0.0038193929   0.93450126     0            
     25000   0.96025821     0.0042367782   0.94741885    -0.0021698162 
     26000   0.9662676      0.0034968921   0.95528183    -0.00024947056
     27000   1.0212183      0.0037009196   1.0098715      0            
     28000   1.0264317      0.0037785621   1.0150269      0            
     29000   1.0178184      0.0039147631   1.0065093      0            
     30000   0.97040772     0.0035589878   0.95962541     0            
     31000   0.998203       0.0043538256   0.98719423     8.2374157e-05
     32000   1.049775       0.0041559889   1.0381108      0            
     33000   1.022063       0.0047107358   1.0107068      0            
     34000   0.96184575     0.0037534496   0.94893181    -0.0022267685 
     35000   1.057811       0.0041106663   1.0465842      0.00052661445
     36000   0.99117395     0.0027577515   0.98016091     0            
     37000   1.0237799      0.0038202155   1.0106416     -0.0017629774 
     38000   0.99081078     0.0040791299   0.97980177     0            
     39000   0.91106272     0.0046206821   0.89857242    -0.0023673759 
     40000   1.0214745      0.0032798924   1.0079075     -0.0022173126 
     41000   0.93933139     0.0038397179   0.92865517    -0.00023921056
     42000   1.0450556      0.0045948983   1.0334439      0            
     43000   0.9921624      0.0048422864   0.98142849     0.00029011605
     44000   1.048506       0.0029598744   1.0347493     -0.0021066999 
     45000   1.0239076      0.0048222599   1.0096145     -0.0029163056 
     46000   1.0378201      0.0037269596   1.026617       0.0003282972 
     47000   0.99234217     0.0037470446   0.98131615     0            
     48000   1.0403282      0.0050062152   1.028769       0            
     49000   1.0104683      0.004012692    0.99945491     0.00021403498
     50000   0.95019963     0.0042246281   0.94235851     0.0027166522 
     51000   1.0180602      0.0040358837   1.0067484      0            
     52000   1.0997743      0.0057781006   1.0875546      0            
     53000   1.0433656      0.0047301413   1.0317727      0            
     54000   1.066576       0.0039387226   1.0547251      0            
     55000   0.99496534     0.0040882267   0.98391017     0            
     56000   1.0428645      0.004347994    1.0312771      0            
     57000   1.0073588      0.0031827018   0.99616597     0            
     58000   0.98248826     0.0036676316   0.97157173     0            
     59000   1.0211447      0.0039878337   1.0097987      0            
     60000   1.0071247      0.0036226      0.99593441     0            
     61000   1.0494545      0.004380177    1.0377939      0            
     62000   0.98740274     0.0049686867   0.9764316      0            
     63000   1.0692186      0.004941022    1.0573384      0            
     64000   0.98280674     0.0034213002   0.9719156      2.8931682e-05
     65000   1.0605683      0.004592207    1.0487842      0            
     66000   1.0396039      0.004016742    1.0280528      0            
     67000   1.0032734      0.0046606439   0.99212588     0            
     68000   0.99863636     0.0034906061   0.9875404      0            
     69000   0.99934414     0.0031640672   0.98824032     0            
     70000   1.0438699      0.0049700181   1.0322713      0            
     71000   0.96721853     0.0037723026   0.95598504    -0.00048661045
     72000   1.0491404      0.0042090327   1.0374833      0            
     73000   0.96125686     0.0041822912   0.95057623     0            
     74000   0.9296158      0.0033513455   0.91928673     0            
     75000   1.0212256      0.0045771268   1.0098786      0            
     76000   1.0569777      0.0049267351   1.0452335      0            
     77000   1.0344844      0.0048961961   1.0226287     -0.00036141812
     78000   0.99154537     0.0036669879   0.97895797    -0.0015702208 
     79000   1.0347701      0.0034614742   1.0232727      0            
     80000   1.0840904      0.0054478192   1.0701553     -0.001889604  
     81000   0.97271132     0.0040220303   0.95944226    -0.0024611569 
     82000   1.0242303      0.003976877    1.01285        0            
     83000   1.0087881      0.0048350833   0.99757938     0            
     84000   0.92927516     0.0031556416   0.91894988     0            
     85000   0.963996       0.0044330759   0.95328494     0            
     86000   0.99238234     0.0029892931   0.98135587     0            
     87000   0.95204185     0.0035961614   0.94146361     0            
     88000   1.0071614      0.0036330064   0.9955347     -0.00043606161
     89000   0.98750078     0.0037596436   0.97652855     0            
     90000   0.97998641     0.003708281    0.96909767     0            
     91000   0.99181903     0.0039610519   0.98126578     0.00046695582
     92000   1.0083843      0.0035868922   0.99718006     0            
     93000   1.0513566      0.0047498151   1.0396749      0            
     94000   1.0179596      0.0036587722   1.0044667     -0.0021822328 
     95000   1.0137303      0.0045059086   1.0024666      0            
     96000   1.0498768      0.0038188045   1.0382115      0            
     97000   0.94679981     0.0034824377   0.93627981     0            
     98000   0.99278191     0.0036522737   0.981751       0            
     99000   0.96465207     0.0031631754   0.95393371     0            
    100000   0.97933886     0.003841393    0.96864098     0.0001836596 
    101000   1.0924082      0.0046877376   1.0802703      0            
    102000   0.96826706     0.0047720448   0.95750588    -2.6638828e-06
    103000   1.0845522      0.0042692348   1.0725017      0            
    104000   0.9665528      0.0036275353   0.95581332     0            
    105000   0.98545709     0.0038509712   0.97450756     0            
    106000   0.96134993     0.0038638892   0.95066826     0            
    107000   1.0056938      0.0034895475   0.99218364    -0.0023357431 
    108000   0.94972507     0.0039558111   0.93694088    -0.0022316854 
    109000   0.97132263     0.0039274451   0.95878715    -0.0017430093 
    110000   1.0545047      0.0044382161   1.0428091      2.1114251e-05
    111000   1.0314269      0.0038671591   1.0199666      0            
    112000   1.0032562      0.0045305516   0.9921089      0            
    113000   1.0302089      0.0041456261   1.0170597     -0.0017024468 
    114000   1.0317555      0.003701711    1.0163842     -0.0039073916 
    115000   1.1081948      0.0049702429   1.0956616     -0.00021996486
    116000   1.0341843      0.0047400448   1.0202577     -0.0024356813 
    117000   1.0295702      0.0045412547   1.0179772     -0.00015328037
    118000   1.0815773      0.0032522717   1.0683954     -0.0011643809 
    119000   1.0299782      0.0042609578   1.0183106     -0.00022340592
    120000   1.0303579      0.0037489298   1.0189095      0            
    121000   1.0830831      0.0038537246   1.0694998     -0.0015490757 
    122000   0.98447901     0.0044300899   0.97244448    -0.001095869  
    123000   1.0433862      0.0038558359   1.031793       0            
    124000   0.95851744     0.0046043947   0.94785917    -8.0753523e-06
    125000   0.99124862     0.0042690802   0.98023474    -9.0887282e-09
    126000   1.008986       0.0031668304   0.99777502     0            
    127000   1.0032011      0.004707935    0.99219236     0.00013797115
    128000   1.0661287      0.0048401757   1.0522225     -0.0020603249 
    129000   1.0171676      0.0034942303   1.0066001      0.0007343732 
    130000   1.0021585      0.0047162468   0.9913843      0.00036085302
    131000   1.0104469      0.0043387711   0.99921971     0            
    132000   0.95547109     0.0034954728   0.94485475     0            
    133000   0.99817754     0.0039660074   0.98561057    -0.00147611   
    134000   1.0517932      0.0040692454   1.0401066      0            
    135000   1.060511       0.0049735653   1.0494621      0.00073454245
    136000   0.90964708     0.0042609227   0.89953989     0            
    137000   0.97902528     0.0032447823   0.96814722     0            
    138000   0.97347908     0.0041481848   0.96216098    -0.0005016689 
    139000   0.97260422     0.0036652346   0.96179751     0            
    140000   0.98631121     0.0042816879   0.97535219     0            
    141000   0.97665331     0.0032287723   0.96580161     0            
    142000   1.038357       0.0042111221   1.0245632     -0.0022565134 
    143000   0.92048977     0.0047626976   0.91026211     0            
    144000   1.0350608      0.0044482942   1.0235601      0            
    145000   0.91125978     0.0043246261   0.90096396    -0.00017071219
    146000   0.9561196      0.0038276954   0.94433648    -0.0011595768 
    147000   1.019591       0.0037986367   1.0082504     -1.1813293e-05
    148000   0.99860799     0.0048458215   0.98751235     0            
    149000   0.92091716     0.0029787221   0.90796413    -0.0027206196 
    150000   0.98114254     0.0044469751   0.97024096     0            
    151000   0.96027198     0.0045106772   0.94805868    -0.0015436095 
    152000   1.0659101      0.0033052056   1.0544616      0.00039492108
    153000   1.0036556      0.0037421436   0.99250388     0            
    154000   1.0255969      0.0042169969   1.0141159     -8.5392181e-05
    155000   1.1046445      0.0043592741   1.0900215     -0.0023491444 
    156000   1.0729167      0.0045260975   1.0577596     -0.0032358957 
    157000   0.97535914     0.0039323403   0.96308329    -0.0014385217 
    158000   1.028847       0.0042822633   1.0163333     -0.0010820511 
    159000   0.97682536     0.0044174244   0.96344462    -0.0025271262 
    160000   1.0066847      0.0040928604   0.99309384    -0.0024054502 
    161000   0.95709864     0.0035002813   0.94609934    -0.00036487014
    162000   1.0322201      0.0041775987   1.0208734      0.00012250285
    163000   1.009564       0.0037780216   0.99840406     5.7421057e-05
    164000   1.0335402      0.0047304305   1.0197215     -0.0023349777 
    165000   1.055806       0.0043037942   1.0450213      0.00094643078
    166000   0.91895397     0.0040157284   0.91001001     0.0012666321 
    167000   1.0040527      0.004452172    0.99067516    -0.0022213914 
    168000   1.0935708      0.0041666466   1.0769786     -0.0044414657 
    169000   1.0309653      0.0036734097   1.0195629      5.278552e-05 
    170000   1.0045615      0.0040804656   0.99165398    -0.0017457753 
    171000   1.013692       0.0040878792   1.0005929     -0.0018358857 
    172000   1.0358223      0.0034802562   1.0345747      0.010261527  
    173000   1.0326469      0.0048240776   1.0211731      0            
    174000   1.0655226      0.0044148227   1.0517803     -0.0019031904 
    175000   1.0002471      0.0045968542   0.9891332      0            
    176000   0.94359489     0.0031973354   0.9331105      0            
    177000   0.98156204     0.0034716333   0.97079089     0.00013508704
    178000   0.9700396      0.0036166392   0.95926138     0            
    179000   1.0154181      0.0039752343   1.0041356     -1.4729527e-07
    180000   0.97152302     0.0040562369   0.95828848    -0.0024398375 
    181000   0.9971396      0.0037780637   0.98195781    -0.0041024665 
    182000   0.99752384     0.0044416601   0.98633457    -0.0001056759 
    183000   1.0378689      0.0040413196   1.026337       0            
    184000   1.067623       0.0040779616   1.054602      -0.0011584933 
    185000   1.0179518      0.0037571721   1.0066412      0            
    186000   0.99420235     0.0038561902   0.98111516    -0.0020404986 
    187000   0.98925011     0.0046034917   0.97683774    -0.0014206954 
    188000   1.0434043      0.0048514056   1.0316897     -0.00012128236
    189000   0.91797898     0.0036192564   0.90777921     0            
    190000   1.0592335      0.0042674315   1.0457117     -0.0017524613 
    191000   1.0461297      0.0046356194   1.0343968     -0.00010923683
    192000   1.042616       0.004340316    1.0296377     -0.0013937341 
    193000   1.019709       0.0046597402   1.0097872      0.0014082807 
    194000   0.96918595     0.0041792946   0.95799859    -0.00041862949
    195000   1.0571868      0.0041282486   1.0454403      0            
    196000   1.0449556      0.0044648693   1.033345       0            
    197000   0.99787509     0.0038249112   0.98678759     0            
    198000   0.92490285     0.0035682407   0.91462615     0            
    199000   0.96075857     0.0050083005   0.94836103    -0.0017224502 
    200000   0.99586634     0.0040144656   0.98480116     0            
    201000   1.0327112      0.0039800016   1.0212535      1.6899825e-05
    202000   0.99783183     0.0027584521   0.98674481     0            
    203000   0.95109544     0.0036481136   0.94052771     0            
    204000   0.97515235     0.0041137554   0.96431733     0            
    205000   0.97796441     0.0036248418   0.96545979    -0.0016383487 
    206000   0.95881954     0.0028969354   0.94816599     0            
    207000   1.0473084      0.0041507304   1.0356716      0            
    208000   0.96642927     0.0033274783   0.95569116     0            
    209000   1.0071891      0.0043156122   0.9959515     -4.6597291e-05
    210000   1.0104228      0.0050697388   0.99919585     0            
    211000   1.0581324      0.0037809649   1.0463754      0            
    212000   0.98649443     0.0032571021   0.97463313    -0.00090025756
    213000   0.96785171     0.0034951957   0.9570978      0            
    214000   1.0300676      0.0040805462   1.0186224      0            
    215000   0.9945615      0.0046013838   0.98362339     0.00011256807
    216000   0.99906841     0.0044038675   0.98717257    -0.00079507417
    217000   0.95150487     0.0051070853   0.93903179    -0.001900801  
    218000   1.0305015      0.0034632566   1.0190514      0            
    219000   0.99098456     0.004085711    0.97997362     0            
    220000   1.0655677      0.0047861623   1.0537281      0            
    221000   1.0897295      0.0045711582   1.0751693     -0.0024520282 
    222000   1.012567       0.0042047684   1.0013162      0            
    223000   0.95364961     0.0035811451   0.94215473    -0.00089876931
    224000   1.0140347      0.005151204    1.000464      -0.002303723  
    225000   1.0071648      0.0039781435   0.99597403     0            
    226000   0.96531554     0.0033909208   0.95458981     0            
    227000   1.0586857      0.0040625554   1.0468398     -8.2711629e-05
    228000   1.0337867      0.0046885055   1.0223002      0            
    229000   1.0596056      0.0040939137   1.0481568      0.00032465079
    230000   0.98268373     0.0040634466   0.96807007    -0.0036949454 
    231000   1.0249564      0.0047935688   1.0132318     -0.00033622126
    232000   1.0693799      0.0044864273   1.0535659     -0.0039319477 
    233000   0.99827253     0.0032612537   0.98718061     0            
    234000   0.9400116      0.0044214827   0.92787255    -0.0016944807 
    235000   1.0082596      0.0052968094   0.99705676     0            
    236000   1.0985164      0.0056067391   1.0863106      0            
    237000   1.0742925      0.0040629443   1.0599641     -0.0023918473 
    238000   0.98690169     0.0030356563   0.97362715    -0.0023089695 
    239000   0.94563314     0.0045852378   0.93270518    -0.0024209223 
    240000   0.99595377     0.0038980495   0.9830234     -0.0018642173 
    241000   0.93695256     0.0039557764   0.92496582    -0.0015761584 
    242000   0.97986107     0.0046007786   0.96897372     0            
    243000   0.93978088     0.0037711748   0.92725331    -0.0020855595 
    244000   0.94416932     0.0039907672   0.93239056    -0.0012879813 
    245000   0.94025011     0.0040368963   0.92690851    -0.0028943841 
    246000   0.97011904     0.0041286079   0.96098779     0.0016478467 
    247000   1.0993555      0.0036845366   1.0871111     -2.9334624e-05
    248000   0.97888407     0.0036550987   0.96803735     2.9773764e-05
    249000   1.0862215      0.004122451    1.0744564      0.00030396009
    250000   0.96619631     0.0042294128   0.95096794    -0.0044928532 
    251000   0.9351141      0.0040491945   0.92232769    -0.0023962506 
    252000   0.9602419      0.0028974337   0.94957255     0            
    253000   1.0160463      0.0036678736   1.0046718     -8.5033216e-05
    254000   1.0134511      0.0034720664   1.0023227      0.00013216186
    255000   0.94137593     0.0040799412   0.93059149    -0.00032471057
    256000   0.95188437     0.0028519692   0.94130788     0            
    257000   1.0131645      0.0038406974   1.0019071      0            
    258000   1.0271086      0.0052625454   1.0156963      0            
    259000   1.0316655      0.0051522364   1.0202025      0            
    260000   0.91344219     0.0031010799   0.90329284     0            
    261000   1.0124706      0.0047076025   1.0012209      0            
    262000   0.96090918     0.004496441    0.95228529     0.0020528779 
    263000   0.94625015     0.0038768489   0.93573626     0            
    264000   1.0053006      0.0040343551   0.99357406    -0.00055653154
    265000   1.0582602      0.0046051035   1.0447895     -0.0017122472 
    266000   0.99627217     0.0038280473   0.98520247     0            
    267000   0.92742899     0.0044196075   0.91711558    -8.6466535e-06
    268000   0.99573697     0.0034334448   0.98397782    -0.0006954101 
    269000   0.97518623     0.003827669    0.96435083     0            
    270000   1.0356689      0.0041960284   1.0241615      0            
    271000   1.0263638      0.0045387365   1.0149597      0            
    272000   0.95827317     0.0048370856   0.94762569     0            
    273000   1.0408429      0.0034058803   1.0292779      0            
    274000   1.0004845      0.0040587155   0.989368       0            
    275000   0.98261646     0.004005786    0.97160211    -9.6390045e-05
    276000   1.0080509      0.0042915851   0.99685034     0            
    277000   0.88106782     0.0030362884   0.86902965    -0.0022485196 
    278000   1.0227742      0.0035731329   1.0108775     -0.00053259321
    279000   0.96182909     0.004186135    0.94981116    -0.0013309385 
    280000   0.98512199     0.0044704332   0.97793845     0.0037622601 
    281000   1.0722136      0.0047745927   1.0594422     -0.00085790272
    282000   1.0421395      0.0038746824   1.0310229      0.00046277763
    283000   0.91939712     0.0048586436   0.9091816      0            
    284000   1.0282837      0.0043657988   1.0168789      2.0613222e-05
    285000   1.0289468      0.0038084161   1.0178082      0.00029412176
    286000   1.011812       0.0042871119   0.99860051    -0.0019691362 
    287000   1.0283337      0.0050912099   1.0149423     -0.0019654878 
    288000   0.93671671     0.0045276934   0.92630875     0            
    289000   0.95898457     0.0038222388   0.94829423    -3.4958144e-05
    290000   0.99404146     0.0046997425   0.98279577    -0.00020078559
    291000   0.95660288     0.0038392701   0.94597396     0            
    292000   1.0016903      0.0039348958   0.99056037     0            
    293000   1.0018313      0.0041874746   0.99069981     0            
    294000   0.9646212      0.0032467385   0.95390318     0            
    295000   1.0346976      0.0036778157   1.023201       0            
    296000   0.91366477     0.0030910779   0.90268174    -0.00083119907
    297000   1.0378747      0.0035729471   1.0263428      0            
    298000   1.0571446      0.0044039318   1.0458101      0.00041160417
    299000   0.96291351     0.0028437432   0.9545812      0.0023667317 
    300000   0.98736227     0.0034740153   0.97639158     0            
    301000   1.020414       0.0041232436   1.0090761      0            
    302000   0.97475458     0.0029874558   0.96392398     0            
    303000   0.99854746     0.0043376947   0.98745248     0            
    304000   0.97275521     0.0032085843   0.96196582     1.900076e-05 
    305000   1.0115079      0.0048551522   0.99997604    -0.00029289347
    306000   0.98026586     0.0039845844   0.96937402     0            
    307000   1.0293299      0.0040804447   1.0178929      0            
    308000   0.98068741     0.003457181    0.96979089     0            
    309000   0.91429144     0.0033071473   0.90439083     0.00025817761
    310000   1.0088306      0.0042441483   0.9963982     -0.0012231566 
    311000   0.99954738     0.0039208913   0.98761626    -0.00082502998
    312000   1.0389755      0.0037106151   1.0299766      0.0025452728 
    313000   1.0128156      0.0043413164   1.0015621      0            
    314000   0.93292606     0.0042581248   0.92256022     0            
    315000   1.0568947      0.0039438265   1.0451515      0            
    316000   0.97293758     0.0047923216   0.96212717     0            
    317000   0.93541768     0.0036402561   0.92502415     0            
    318000   1.0414326      0.0033842599   1.0303275      0.00046635529
    319000   1.073476       0.0053599449   1.0600768     -0.0014716393 
    320000   0.96644404     0.0035371576   0.95570578     0            
    321000   0.91322418     0.0028269101   0.90307725     0            
    322000   1.0144038      0.0042113481   1.0031326      0            
    323000   1.0767026      0.0036638055   1.0647392      0            
    324000   0.94769985     0.0038500843   0.93538472    -0.0017851347 
    325000   0.98433246     0.0050954273   0.97344294     4.7502656e-05
    326000   1.0950771      0.0043227849   1.0829096      0            
    327000   1.039721       0.0047116942   1.0281686      0            
    328000   1.0066446      0.0039941562   0.9954597      0            
    329000   0.99050683     0.0042845955   0.9795012      0            
    330000   1.0530288      0.0053256019   1.0413285      0            
    331000   1.0065975      0.003955969    0.99541306     0            
    332000   1.0601098      0.0046739136   1.0488401      0.00050932447
    333000   1.004051       0.0038684848   0.99269416    -0.0002007273 
    334000   1.0027167      0.0043881433   0.99037257    -0.0012028033 
    335000   0.93610073     0.0038613963   0.92593603     0.00023641747
    336000   1.0211791      0.0047479171   1.0076139     -0.0022187855 
    337000   1.0476321      0.0038581224   1.03427       -0.0017217829 
    338000   1.0527981      0.0047555646   1.0398979     -0.0012024512 
    339000   1.0376479      0.0048103967   1.0261819      6.3442736e-05
    340000   1.0244356      0.0041157628   1.013053       0            
    341000   0.9834803      0.0040544145   0.97255274     0            
    342000   0.96193917     0.0032105167   0.95079922    -0.00045173941
    343000   1.0479197      0.0042290319   1.0362762      0            
    344000   1.1128356      0.0042677401   1.1004708      0            
    345000   0.93812022     0.0035976199   0.92769666     0            
    346000   1.0081134      0.0047833912   0.99691214     0            
    347000   1.0976409      0.0055316073   1.0854449      0            
    348000   1.017416       0.0040957517   1.0061114      0            
    349000   1.0306949      0.0050527987   1.0192428      0            
    350000   0.91063627     0.003401913    0.90051809     0            
    351000   0.9874467      0.0037820921   0.97443385    -0.0020412231 
    352000   1.1016698      0.003825065    1.089428      -1.0670864e-06
    353000   0.99168476     0.0037098236   0.98066604     0            
    354000   0.93447039     0.0038415185   0.9240782     -9.1856966e-06
    355000   0.99359739     0.0042273893   0.98255741     0            
    356000   1.0012184      0.0036444671   0.99009374     0            
    357000   0.99196034     0.0036364337   0.98093856     0            
    358000   0.95598799     0.0045303244   0.94680557     0.0014396696 
    359000   1.0120248      0.0038600426   1.0007801      0            
    360000   0.97733675     0.0044354884   0.96647745     0            
    361000   1.061208       0.0049374179   1.0498797      0.00046288779
    362000   1.0435817      0.0036971458   1.0319863      0            
    363000   0.99927916     0.004138842    0.98728845    -0.0008876043 
    364000   0.95429036     0.0037029859   0.94368713     0            
    365000   0.98428912     0.0037181254   0.97335258     0            
    366000   1.0168897      0.0035395342   1.0055909      0            
    367000   1.0093099      0.0041041524   0.99809533     0            
    368000   0.9465844      0.0038879088   0.9360668      0            
    369000   0.87856986     0.0027926007   0.86880797     0            
    370000   0.97476264     0.0048485113   0.96393195     0            
    371000   1.0260522      0.0037650538   1.0146577      6.109275e-06 
    372000   1.031205       0.004332955    1.0197472      0            
    373000   0.97625882     0.0035199146   0.96304023    -0.0023712714 
    374000   0.99050967     0.0037554896   0.979504       0            
    375000   1.0411276      0.0054375303   1.0295595      0            
    376000   0.98387474     0.0040334859   0.9729428      0            
    377000   0.95387012     0.003996162    0.94366183     0.00039026225
    378000   1.0504893      0.004334794    1.0366719     -0.0021452707 
    379000   0.99044848     0.0032393763   0.9797976      0.00035410702
    380000   0.96063758     0.003650765    0.94929576    -0.00066806985
    381000   1.0061958      0.0042845108   0.99280925    -0.0022066359 
    382000   0.99303621     0.0030177514   0.97972752    -0.0022749532 
    383000   1.0569735      0.0045363395   1.0452293      0            
    384000   1.045938       0.0047153696   1.0343165      0            
    385000   0.97700785     0.0044653127   0.9661522      0            
    386000   1.0581827      0.00476805     1.0464251      0            
    387000   0.93662403     0.0030594198   0.92621709     0            
    388000   0.97874152     0.0034328251   0.9670223     -0.00084430991
    389000   0.98596353     0.0029610127   0.97414419    -0.0008641868 
    390000   1.0156103      0.0048500327   1.0032912     -0.0010345293 
    391000   1.1066215      0.0054984606   1.0929623     -0.0013634582 
    392000   0.99621884     0.0036551091   0.98551217     0.00036243478
    393000   1.0375863      0.003192579    1.0260599      2.3335368e-06
    394000   1.0531989      0.0043772702   1.0414967      0            
    395000   1.0269516      0.0039038989   1.0155411      0            
    396000   0.94274506     0.0033049723   0.93221929    -5.0825867e-05
    397000   1.013437       0.0050231085   1.0021766      0            
    398000   0.97344696     0.0037775753   0.96263089     0            
    399000   0.91244094     0.0035601776   0.90230271     0            
    400000   1.08148        0.0051034568   1.0694635      0            
    401000   1.0547328      0.0048440163   1.0430135      0            
    402000   0.95287626     0.0038273909   0.93985888    -0.0024298629 
    403000   1.0486791      0.0043120151   1.0349323     -0.0020947786 
    404000   0.96208213     0.0046571174   0.95139233     0            
    405000   1.0595968      0.0049567501   1.0478235      0            
    406000   1.0137537      0.0046298618   1.0032761      0.00078637706
    407000   1.0045032      0.0036045397   0.9933421      0            
    408000   1.0153155      0.0038159183   1.0063025      0.0022682232 
    409000   1.0740449      0.0044924048   1.0621204      9.2934351e-06
    410000   0.97648696     0.0038549843   0.96593358     0.00029647792
    411000   0.94475577     0.0036907733   0.93425849     0            
    412000   0.98854807     0.0040052418   0.9775642      0            
    413000   1.0509589      0.0039560569   1.0392816      0            
    414000   0.97333864     0.0036362478   0.96252106    -2.7022542e-06
    415000   0.98370516     0.0043192214   0.97277511     0            
    416000   1.0601827      0.0041209315   1.0484029      0            
    417000   0.94112682     0.0043018912   0.92948064    -0.0011892074 
    418000   1.040404       0.0038246531   1.0275346     -0.0013093251 
    419000   0.91356682     0.0040961765   0.90341608     0            
    420000   0.98615412     0.0032654285   0.97281896    -0.0023778869 
    421000   1.0760467      0.0049200589   1.0640906      0            
    422000   1.0119592      0.0044752837   1.000785       6.9807259e-05
    423000   0.98191918     0.0042512565   0.97100896     0            
    424000   0.99317539     0.0042373026   0.98214011     0            
    425000   1.0263925      0.0036185585   1.0149881      0            
    426000   1.0000309      0.004121677    0.98791831    -0.0010011052 
    427000   0.93445223     0.0043379022   0.92416934     9.9913917e-05
    428000   1.0474888      0.0044761525   1.0356272     -0.00022278974
    429000   0.91895625     0.0042869879   0.90801272    -0.00073290471
    430000   0.99881034     0.0046592171   0.98510602    -0.0026064245 
    431000   0.96803709     0.0037493661   0.95728112     0            
    432000   1.0526563      0.0040953365   1.0396455     -0.0013146658 
    433000   0.91094245     0.0040567505   0.90082087     0            
    434000   0.96517691     0.0045461387   0.95949081     0.0050380782 
    435000   1.0376827      0.004295316    1.0261529      0            
    436000   0.99137666     0.0041110275   0.98036136     0            
    437000   1.0581504      0.0040747175   1.0463932      0            
    438000   0.91343244     0.0038451701   0.90328319     0            
    439000   1.0394586      0.0042273951   1.0276436     -0.00026546337
    440000   1.001353       0.0042841791   0.98872661    -0.0015002422 
    441000   1.0170501      0.0040378302   1.0061308      0.0003812463 
    442000   0.990326       0.0046377913   0.97889425    -0.00042813254
    443000   1.0634459      0.0031013283   1.0516298      0            
    444000   0.97279485     0.0030347227   0.96194502    -4.099842e-05 
    445000   1.010517       0.0035447463   0.99928902     0            
    446000   1.0204708      0.0045573079   1.0091322      0            
    447000   1.0590984      0.0032310809   1.0473306      0            
    448000   0.95102059     0.0044965673   0.9404537      0            
    449000   0.913587       0.0037874722   0.90343603     0            
    450000   0.98455254     0.0050140458   0.97299497    -0.00061810491
    451000   0.92551129     0.0039967677   0.91174709    -0.0034807433 
    452000   1.0419142      0.0050172426   1.0303374      0            
    453000   1.0002952      0.0038583152   0.98918084     0            
    454000   1.0202179      0.0040134553   1.0088822      0            
    455000   0.98070571     0.0049890385   0.96980642    -2.5585228e-06
    456000   0.98608482     0.0044456607   0.97512833     0            
    457000   1.0924076      0.0040435394   1.0778342     -0.0024355355 
    458000   1.0189315      0.003694847    1.0069912     -0.00061883978
    459000   0.98291784     0.0049125809   0.97199653     0            
    460000   0.94982531     0.0041177878   0.9392717      0            
    461000   1.0901297      0.0037117903   1.0772211     -0.00079604332
    462000   0.95502518     0.0034676728   0.94441379     0            
    463000   0.95544523     0.0032037653   0.94338049    -0.0014486835 
    464000   0.89030794     0.0037890033   0.88077179     0.00035616252
    465000   0.97481336     0.0046836919   0.96168635    -0.0022957492 
    466000   0.94969641     0.0028533301   0.93809963    -0.0010445998 
    467000   0.97633542     0.0045483661   0.964646      -0.00084125833
    468000   1.0085659      0.0031920461   0.99629913    -0.0010604632 
    469000   1.0787864      0.0049922659   1.0667916     -8.2195473e-06
    470000   0.99013633     0.0049268532   0.97567149    -0.003463328  
    471000   0.95595374     0.0032722963   0.9422937     -0.0030383323 
    472000   1.0359682      0.0036145167   1.0251891      0.00073168552
    473000   1.0564863      0.0041865529   1.0447475      0            
    474000   1.0486049      0.0037496405   1.0369537      0            
    475000   1.0132122      0.0040418005   0.99729559    -0.0046586987 
    476000   1.0127337      0.0044140015   1.0005838     -0.00089736938
    477000   1.0635461      0.0036983236   1.0511005     -0.00062838935
    478000   0.92735591     0.0036231096   0.91972432     0.0026723699 
    479000   0.98116011     0.0029436163   0.96936888    -0.00088945475
    480000   1.0089771      0.0031940733   0.99776624     0            
    481000   1.028892       0.004487387    1.0155187     -0.0019411319 
    482000   1.1325468      0.003710233    1.1192675     -0.00069540845
    483000   0.96498163     0.004338006    0.95240626    -0.0018533487 
    484000   1.0068046      0.0047871107   0.99458126    -0.0010366326 
    485000   1.0156902      0.0038706474   1.002006      -0.0023987189 
    486000   0.98531416     0.0043386872   0.97213619    -0.0022300312 
    487000   0.97250774     0.0044528831   0.96839997     0.0066978712 
    488000   0.95917178     0.0042094852   0.94888077     0.00036644664
    489000   0.96921148     0.0041051649   0.95844247     0            
    490000   1.0672565      0.0054709717   1.0553981      0            
    491000   0.98050968     0.0032812019   0.96961513     0            
    492000   1.0004119      0.004633597    0.9892962      0            
    493000   1.0004445      0.0041853126   0.98932844     0            
    494000   1.0088668      0.0029570762   0.99765717     0            
    495000   0.9435637      0.0036823625   0.93307965     0            
    496000   0.95091358     0.0044003008   0.94034788     0            
    497000   1.0323123      0.0047463218   1.0208422      0            
    498000   1.0211737      0.0043521871   1.0098864      5.90366e-05  
    499000   1.0564471      0.0039066313   1.0435552     -0.0011535486 
    500000   0.98790486     0.003744053    0.97692814     0            
    501000   1.0649711      0.003905716    1.0531381      0            
    502000   1.0335184      0.0038356287   1.0197593     -0.0022755499 
    503000   0.98351966     0.0032907413   0.97440351     0.0018118497 
    504000   0.98535871     0.0041112524   0.97440351    -6.7698211e-06
    505000   0.94600198     0.0039024379   0.93549085     0            
    506000   1.0118439      0.0051699788   0.99840757    -0.0021935893 
    507000   1.0426237      0.0047244079   1.0298742     -0.0011647931 
    508000   0.95042922     0.0041300693   0.9396364     -0.00023249625
    509000   1.0346864      0.0048303716   1.0231899      0            
    510000   1.026516       0.0037378548   1.01318       -0.001930276  
    511000   0.99390413     0.0042502192   0.98066507    -0.0021956808 
    512000   1.044639       0.0041697046   1.0330037     -2.8220909e-05
    513000   1.0497169      0.0041814255   1.0374824     -0.00057100659
    514000   1.0617106      0.0054901312   1.0499364      2.2525069e-05
    515000   0.99069096     0.0042995393   0.97968328     0            
    516000   1.0165415      0.0039991487   1.0052466      0            
    517000   1.0256102      0.0032238997   1.0145971      0.00038261928
    518000   0.9882512      0.0036868015   0.97727063     0            
    519000   0.95699616     0.0037040421   0.94636287     0            
    520000   1.0619447      0.0049277051   1.053558       0.0034126791 
    521000   0.91861284     0.0039068917   0.90840603     0            
    522000   0.92430296     0.00350984     0.91159523    -0.0024377002 
    523000   1.0383228      0.0041564893   1.0267858      0            
    524000   1.0829048      0.0046807501   1.0703549     -0.00051757769
    525000   0.96881088     0.0042462127   0.95627768    -0.0017686376 
    526000   0.98460593     0.0034441543   0.97211665    -0.0015492068 
    527000   1.0628992      0.0049981741   1.0510892      0            
    528000   1.0314893      0.0041473238   1.0184487     -0.0015795457 
    529000   0.95473941     0.0033330781   0.9441312      0            
    530000   0.95614659     0.0043447176   0.94551593    -6.8060102e-06
    531000   0.99964667     0.0044140817   0.9879675     -0.0005719853 
    532000   0.98440672     0.0041915755   0.97346887     0            
    533000   1.0042789      0.0034227249   0.99304103    -7.9190022e-05
    534000   0.92133719     0.0037070407   0.91110011     0            
    535000   1.0785573      0.0033388229   1.0665733      0            
    536000   0.98267232     0.0036105455   0.97175374     0            
    537000   1.0392171      0.0043478502   1.0292941      0.0016238689 
    538000   1.0144237      0.0046218125   1.0031523      0            
    539000   0.96167852     0.0042193625   0.9509932      0            
    540000   1.0158557      0.0041994592   1.0045684      0            
    541000   1.0485603      0.0051295634   1.0369097      0            
    542000   1.0055586      0.0041109699   0.9943857      0            
    543000   1.0526352      0.0040028082   1.0387149     -0.0022243416 
    544000   1.0129908      0.0045345646   1.001866       0.00013070165
    545000   1.004812       0.003554194    0.9936474      0            
    546000   0.97821675     0.0039952176   0.96570636    -0.0016413179 
    547000   1.0197831      0.0032285986   1.0072923     -0.0011599409 
    548000   1.0500188      0.0048449859   1.0383538      1.8781227e-06
    549000   1.0109892      0.0036116398   0.99885557    -0.00090040432
    550000   1.1299434      0.0042517519   1.1173884      0            
    551000   0.95263414     0.0039063646   0.94204931     0            
    552000   0.93140234     0.0038176154   0.92105343     0            
    553000   1.071166       0.0051359658   1.0592642      0            
    554000   0.99625998     0.0040500491   0.98519042     0            
    555000   1.0129178      0.00441057     1.0002943     -0.0013688257 
    556000   1.0216945      0.0039582286   1.0110983      0.00075602119
    557000   1.0832384      0.003941314    1.0712024      0            
    558000   0.97923605     0.0038607325   0.96707321    -0.001282437  
    559000   0.97689263     0.004642503    0.96594164    -9.6629574e-05
    560000   1.0320555      0.0044110283   1.0184645     -0.0021237042 
    561000   1.0309447      0.0042959006   1.0194897      0            
    562000   0.99645049     0.0051530288   0.98537881     0            
    563000   1.0043211      0.0033667016   0.99352889     0.00036689046
    564000   1.0632767      0.0053135288   1.0514625      0            
    565000   0.97059083     0.0035061757   0.95980648     0            
    566000   1.0422916      0.0039047998   1.0304042     -0.00030636377
    567000   0.92754774     0.0038008983   0.91730295     6.1294645e-05
    568000   0.9833334      0.0036327161   0.97240748     0            
    569000   0.98502631     0.0048979919   0.97408158     0            
    570000   1.0151447      0.0046678183   1.0038653      0            
    571000   1.0351959      0.0040491274   1.0236937      0            
    572000   1.011404       0.0036233571   0.99771119    -0.0024550081 
    573000   1.0482597      0.0037687519   1.0343953     -0.002217083  
    574000   1.0172759      0.0043434084   1.0059729      0            
    575000   1.1000928      0.005732614    1.0878695      0            
    576000   0.99938168     0.0034549247   0.98934456     0.0010671157 
    577000   1.0250095      0.0033952441   1.0136205      0            
    578000   0.96691802     0.0035680181   0.95617448     0            
    579000   0.9416044      0.0048077143   0.93114213     0            
    580000   0.85690798     0.0048927013   0.84738678     0            
    581000   0.9965893      0.0035724562   0.98551608     0            
    582000   1.085445       0.004576681    1.0733845      0            
    583000   1.082179       0.0038185839   1.0701548      0            
    584000   0.94410392     0.0038179524   0.93430558     0.00069169924
    585000   0.87250857     0.0030068759   0.86281403     0            
    586000   1.0203267      0.0046914588   1.0089898      0            
    587000   1.0962547      0.0037010464   1.0840741      0            
    588000   1.0137042      0.0045028465   1.0024409      0            
    589000   1.087655       0.0037872726   1.0755699      0            
    590000   1.00614        0.0038733908   0.99302899    -0.0019317063 
    591000   1.0862363      0.004282985    1.0742487      8.1710318e-05
    592000   0.85295448     0.0034963642   0.84347721     0            
    593000   1.0501057      0.0048435738   1.0389395      0.0005016547 
    594000   0.97854972     0.0033038177   0.96866469     0.00098774937
    595000   0.94619055     0.0042224198   0.93554894    -0.00012838321
    596000   1.0359174      0.003536047    1.0238637     -0.00054353079
    597000   1.0570593      0.0051258432   1.0453142      0            
    598000   1.0268575      0.0046036962   1.0154479      0            
    599000   0.98311335     0.0047501256   0.9717499     -0.00043997645
    600000   1.1154477      0.0047786025   1.1030539      0            
    601000   0.99433916     0.0026735405   0.98329094     0            
    602000   1.0269414      0.0040720776   1.015531       0            
    603000   0.95184204     0.0039796282   0.94126602     0            
    604000   0.91625851     0.0047972296   0.90607786     0            
    605000   0.95274871     0.0035981742   0.94216262     0            
    606000   1.0149047      0.0039479343   1.003628       0            
    607000   0.99794924     0.0043491222   0.98723867     0.00037775037
    608000   1.0364021      0.0036154153   1.0248865      0            
    609000   0.97568357     0.0036119417   0.96484264     0            
    610000   0.98208526     0.004670664    0.9711732      0            
    611000   0.93161058     0.0026545704   0.92125935     0            
    612000   1.0031112      0.0045887627   0.99196556     0            
    613000   1.0055443      0.0050216956   0.99437163     0            
    614000   1.0224332      0.0038164915   1.0107912     -0.00028169758
    615000   1.0346148      0.0040376204   1.0231208      1.7563828e-06
    616000   1.0576056      0.0034102562   1.0458421     -1.2334037e-05
    617000   0.91598979     0.0036730513   0.90581212     0            
    618000   0.9988745      0.0040061556   0.98777589     0            
    619000   1.0693538      0.0038131647   1.0571429     -0.00032914885
    620000   0.98357083     0.0035699272   0.97103633    -0.0016059322 
    621000   0.95082784     0.0034068175   0.93992969    -0.00033340006
    622000   0.89780985     0.0037888626   0.88799636     0.0001621796 
    623000   0.92471472     0.0032098722   0.91444011     0            
    624000   1.0222436      0.0042601907   1.0108854      0            
    625000   1.0140039      0.0044419348   1.0027372      0            
    626000   1.0159429      0.0044736931   1.0046546      0            
    627000   1.0358936      0.0042650817   1.0243837      0            
    628000   1.0279954      0.0037334426   1.0165733      0            
    629000   0.96442455     0.0043462047   0.95370872     0            
    630000   1.047229       0.0031947469   1.0355931      0            
    631000   0.99983188     0.0048370687   0.98872264     0            
    632000   1.0151579      0.003584782    1.0038784      0            
    633000   1.0346164      0.0047883722   1.0216606     -0.0014600237 
    634000   1.0445108      0.0046350193   1.0329051      0            
    635000   1.0262337      0.0042228221   1.0107156     -0.0041155427 
    636000   0.9699844      0.0042306347   0.96186683     0.0026600274 
    637000   1.0461341      0.0043386164   1.0320812     -0.0024291947 
    638000   1.0132267      0.0038442384   0.99943884    -0.0025297627 
    639000   1.0078598      0.0047562519   0.99660323    -5.8132957e-05
    640000   0.94713754     0.0043340771   0.93661379     0            
    641000   1.0723224      0.0040431703   1.060408       3.1509705e-07
    642000   0.91309356     0.0038675158   0.90294808     0            
    643000   0.99532016     0.0041786778   0.98206558    -0.0021954733 
    644000   0.94491718     0.0037764306   0.93097403    -0.0034440749 
    645000   0.95075143     0.0037445429   0.93855269    -0.0016348376 
    646000   0.96947871     0.0035656413   0.95680154    -0.0019051782 
    647000   1.022731       0.0042937878   1.008912      -0.0024553745 
    648000   1.0404202      0.0051581513   1.0246676     -0.0041923723 
    649000   0.98561947     0.0038470384   0.97466814     0            
    650000   1.0061776      0.0041713905   0.99443455    -0.00056331364
    651000   0.92257378     0.0041262098   0.91020158    -0.002121384  
    652000   1.0781237      0.0045275602   1.0677547      0.001610075  
    653000   1.0470149      0.003876052    1.0346264     -0.00075501186
    654000   1.0508367      0.0041202406   1.0391987      3.797756e-05 
    655000   1.0020601      0.0038460151   0.99073328    -0.00019277557
    656000   1.003628       0.0042518898   0.99247662     0            
    657000   1.0135108      0.0039183798   1.0021385     -0.00011107352
    658000   0.95946456     0.0044745006   0.9474406     -0.0013632415 
    659000   1.1026636      0.0051929892   1.0904118      0            
    660000   1.0555908      0.0033635471   1.043862       0            
    661000   1.1109093      0.0059991314   1.0983939     -0.00017195152
    662000   1.014856       0.003916805    1.0012795     -0.0023003695 
    663000   1.0606148      0.0056814976   1.04734       -0.001490219  
    664000   0.89821861     0.0045646379   0.8860299     -0.0022085027 
    665000   0.99350213     0.0043013646   0.98070686    -0.0017563511 
    666000   0.99959548     0.0037386383   0.98848886     0            
    667000   0.9778243      0.0050761727   0.96742277     0.00046318733
    668000   0.97726135     0.0047669871   0.96723535     0.00083245518
    669000   1.1200255      0.0041451226   1.1075808      0            
    670000   1.065191       0.0038489871   1.0533556      0            
    671000   0.99122174     0.0034514064   0.98020816     0            
    672000   0.9463301      0.0036428313   0.93581532     0            
    673000   0.92612844     0.004459264    0.91583812     0            
    674000   1.0325496      0.00438931     1.0210768      0            
    675000   1.0506157      0.0035127686   1.0389422      0            
    676000   1.0258827      0.0031643134   1.0145459      6.193516e-05 
    677000   0.93166558     0.0035882937   0.92131374     0            
    678000   0.99946077     0.0034633551   0.98835565     0            
    679000   0.97160962     0.0043712881   0.96081396     0            
    680000   0.9930732      0.0039523576   0.98203905     0            
    681000   1.0119216      0.0043671372   1.000678       0            
    682000   0.94417146     0.0027390537   0.93189767    -0.001782998  
    683000   1.0320442      0.0044515822   1.020577       0            
    684000   0.92619672     0.0038442103   0.91591168     6.0277646e-06
    685000   1.0317149      0.0035015222   1.0202514      0            
    686000   1.0537132      0.003235035    1.0420053      0            
    687000   1.0158054      0.0048911593   1.004602       8.3360563e-05
    688000   0.99663058     0.0036140736   0.98555112    -5.793394e-06 
    689000   1.0711648      0.0044930948   1.0594624      0.00019942748
    690000   1.0414836      0.004156195    1.0299116      0            
    691000   0.96349726     0.0039816959   0.95044276    -0.0023489728 
    692000   0.93484033     0.0036969187   0.92445322     0            
    693000   0.88870479     0.0032959818   0.87883029     0            
    694000   0.98131965     0.0036974484   0.96950725    -0.00090885038
    695000   0.97833253     0.0040973997   0.96864432     0.0011821526 
    696000   1.0724874      0.0039495253   1.0593906     -0.0011802535 
    697000   1.0223947      0.0048682702   1.0088841     -0.0021506532 
    698000   0.96854097     0.0045185693   0.95777941     0            
    699000   1.0940988      0.0031722983   1.0816541     -0.00028807171
    700000   0.99929951     0.0042087952   0.98819618     0            
    701000   1.0105598      0.0039528079   0.99933138     0            
    702000   1.0080476      0.0039075334   0.99684703     0            
    703000   1.0419324      0.0055490702   1.0303554      0            
    704000   1.0173152      0.0042419853   1.0059996     -1.2016893e-05
    705000   0.97839308     0.0044701787   0.96752205     0            
    706000   1.0182073      0.0042081889   1.0068939      0            
    707000   1.0449138      0.0046811231   1.0333037      0            
    708000   1.0081739      0.0040220194   0.99697201     0            
    709000   1.0734361      0.0043476186   1.059162      -0.0023471097 
    710000   1.0011471      0.0051945703   0.99020984     0.00018662701
    711000   0.96092696     0.0036655254   0.95089549     0.00064549559
    712000   0.96743687     0.0036674942   0.95668757     0            
    713000   1.0380726      0.0050889065   1.0263607     -0.00017775813
    714000   1.0032861      0.0038857063   0.99213845     0            
    715000   1.0105354      0.0039360804   0.99930727     0            
    716000   0.98847756     0.0047090674   0.97749447     0            
    717000   0.92867756     0.0041523431   0.91835892     0            
    718000   0.93529566     0.0037703052   0.92490349     0            
    719000   0.96391415     0.0046477208   0.95320399     0            
    720000   1.054982       0.0043790869   1.04326        0            
    721000   1.1002949      0.0039619439   1.0880694      0            
    722000   0.89377154     0.0043799461   0.88384075     0            
    723000   1.0257216      0.0036314318   1.0143247      0            
    724000   0.9198245      0.0042072176   0.91396791     0.0043636885 
    725000   0.97936141     0.003603381    0.96847962     0            
    726000   0.99589508     0.0048805042   0.98385926    -0.00097031898
    727000   1.0141391      0.0046675953   1.0028708      0            
    728000   1.0155996      0.0031365498   1.0043152      0            
    729000   1.0489394      0.0036047568   1.0372845      0            
    730000   1.0368975      0.0043491177   1.0253764      0            
    731000   1.0176108      0.0053183707   1.0067658      0.00046176898
    732000   0.90109486     0.0044038627   0.8910827      0            
    733000   1.0158407      0.0034262506   1.0045536      0            
    734000   0.95443554     0.0042243776   0.9438307      0            
    735000   1.0146286      0.0043010014   1.003436       8.1050181e-05
    736000   1.1027106      0.0051336486   1.0904583      0            
    737000   1.0071169      0.0046825644   0.99592671     0            
    738000   0.94615081     0.0034827901   0.93563802     0            
    739000   1.0651246      0.0044836227   1.0533928      0.00010285525
    740000   0.9830769      0.0034619574   0.97215382     0            
    741000   0.98429855     0.0039459754   0.9733619      0            
    742000   0.97379108     0.0037718782   0.96297118     0            
    743000   1.0015939      0.003821466    0.99046506     0            
    744000   0.90267174     0.0042206608   0.89264205     0            
    745000   0.97504237     0.0031696903   0.9654993      0.0012907411 
    746000   1.0409465      0.0041275249   1.0293805      0            
    747000   0.93377459     0.0042882302   0.92494659     0.0015472736 
    748000   0.86919268     0.0037319106   0.85953498     0            
    749000   1.0332212      0.0038461358   1.0217409      0            
    750000   1.0164148      0.0029723981   1.0051213      0            
    751000   0.98761632     0.0045948522   0.9766428      0            
    752000   1.0527105      0.0047748775   1.0389016     -0.002112166  
    753000   1.0492637      0.0039828695   1.0376052      0            
    754000   0.97873461     0.0045608226   0.96785978     0            
    755000   0.96029767     0.0046130041   0.94962769     0            
    756000   0.98318992     0.0035856655   0.9707501     -0.0015154833 
    757000   1.0660574      0.0039490365   1.0499771     -0.0042352104 
    758000   0.95479804     0.0041578588   0.94199194    -0.0021972291 
    759000   0.98985524     0.0040892736   0.97790106    -0.00095579186
    760000   1.0206751      0.0041996387   1.0093343      0            
    761000   1.0287996      0.0033722238   1.0173685      0            
    762000   0.97600983     0.0043995335   0.96516528     0            
    763000   1.0579862      0.0040169133   1.0462308      0            
    764000   0.95687098     0.0042583988   0.94623908     0            
    765000   0.97634842     0.0034681539   0.9655001      0            
    766000   1.0335111      0.0051423603   1.0220276      0            
    767000   0.95134132     0.0047371925   0.94077086     0            
    768000   1.0280257      0.0040601648   1.0166031      0            
    769000   1.0318934      0.0045102181   1.0204279      0            
    770000   0.90751257     0.0039912861   0.89730949    -0.0001196088 
    771000   1.0092936      0.0039466118   0.99807925     0            
    772000   0.98049882     0.0038826614   0.96813171    -0.0014726765 
    773000   1.0350111      0.0030599566   1.0229109     -0.00060007409
    774000   1.0292069      0.0037598883   1.017821       4.9710353e-05
    775000   1.1340218      0.0045273318   1.1214216      0            
    776000   0.95180916     0.0043091918   0.94019217    -0.0010413398 
    777000   0.97470811     0.0043607135   0.96387802     0            
    778000   1.0030525      0.0034113772   0.9919075      0            
    779000   0.99564339     0.0043181688   0.98458068     0            
    780000   0.99955698     0.0033900646   0.98845079     0            
    781000   0.95960362     0.0041805646   0.94894136     0            
    782000   1.0753979      0.0043628775   1.063449       0            
    783000   0.92398101     0.003651662    0.91371455     0            
    784000   0.95267032     0.0032438165   0.94208509     0            
    785000   0.99439705     0.0042396811   0.98334819     0            
    786000   0.9800783      0.0045383151   0.96928596     9.7417239e-05
    787000   0.98866877     0.0044606699   0.97768356     0            
    788000   1.0493266      0.0040932876   1.0353113     -0.0023561415 
    789000   1.0472481      0.005259069    1.035612       0            
    790000   1.1582555      0.0050404748   1.145386       0            
    791000   1.0331642      0.0032338809   1.0216846      0            
    792000   1.0459491      0.0042727563   1.0343275      0            
    793000   0.9607283      0.0038350926   0.95005354     0            
    794000   0.96671917     0.0047229118   0.95597785     0            
    795000   0.97449942     0.0029252408   0.96367165     0            
    796000   1.0743762      0.0044301106   1.0624387      0            
    797000   0.9801906      0.0040177883   0.96929959     0            
    798000   1.071489       0.0053019379   1.0595836      0            
    799000   1.0152173      0.0044083716   1.0039371      0            
    800000   1.0214451      0.0045321844   1.0100996      3.8516664e-06
    801000   0.98182043     0.0034581177   0.97091132     0            
    802000   1.0489664      0.0044001861   1.0373112      0            
    803000   0.93990688     0.0035274459   0.92946347     0            
    804000   1.0039636      0.0040417593   0.99280845     0            
    805000   1.1076397      0.0036249263   1.0953326      0            
    806000   1.0285086      0.0046127677   1.0170808      0            
    807000   1.025364       0.0042643313   1.0139711      0            
    808000   1.0602438      0.0035884731   1.0484861      2.2852382e-05
    809000   1.0923284      0.0038760874   1.0801914      0            
    810000   1.0121116      0.0031112      1.000866       0            
    811000   0.96036769     0.0044840836   0.94969694     0            
    812000   0.97279665     0.0045903645   0.96666907     0.0046812742 
    813000   1.0413089      0.0046021344   1.0282631     -0.0014757662 
    814000   0.95622659     0.0039843782   0.94560185     0            
    815000   1.0569155      0.0042059271   1.0449521     -0.00021987777
    816000   1.0901076      0.0042307125   1.0756604     -0.0023348806 
    817000   0.87398612     0.0035246823   0.86427517     0            
    818000   0.9277701      0.0038393925   0.91746154     0            
    819000   1.0244067      0.0049676326   1.0130244      0            
    820000   1.0425289      0.0044576596   1.0309453      0            
    821000   0.97091745     0.0044136901   0.9603165      0.00018702137
    822000   1.0084752      0.0049714085   0.99726994     0            
    823000   1.0506331      0.0044236459   1.0390214      6.2021075e-05
    824000   0.9070567      0.0052739807   0.89512108    -0.0018572032 
    825000   1.0504227      0.0037090194   1.0383728     -0.00037849568
    826000   1.0376964      0.0046275516   1.0259355     -0.00023089203
    827000   0.91498549     0.0035488696   0.90465838    -0.00016061215
    828000   1.0024689      0.0037683648   0.99133035     0            
    829000   1.0205         0.0038567847   1.0091611      0            
    830000   0.96719304     0.0040923516   0.95554519    -0.00090126128
    831000   0.91992692     0.0045523355   0.90970495    -5.5454423e-07
    832000   0.95822053     0.0045113429   0.94757364     0            
    833000   1.0478884      0.003507335    1.0362452      0            
    834000   1.0491513      0.0040387179   1.0376124      0.00011827882
    835000   0.94994159     0.0036432356   0.93938668     0            
    836000   0.9924         0.0036030938   0.98137333     0            
    837000   1.0152258      0.0042881017   1.0039455      0            
    838000   1.0182192      0.0046880888   1.0069056      0            
    839000   1.0529006      0.0048601368   1.0393835     -0.0018181504 
    840000   1.0225318      0.003662764    1.0114416      0.00027125004
    841000   0.98634577     0.0047182281   0.97537546    -1.0916606e-05
    842000   1.0331749      0.0044261725   1.0216952      0            
    843000   1.0720317      0.003933866    1.0586689     -0.0014512992 
    844000   0.9679025      0.0051924421   0.95595703    -0.0011910031 
    845000   0.95378516     0.0047804505   0.94133418    -0.0018533688 
    846000   1.0473011      0.0047787383   1.03299       -0.0026744027 
    847000   0.96257107     0.0034883176   0.95195652     8.0680336e-05
    848000   1.0038909      0.004496395    0.99097519    -0.0017614093 
    849000   1.0008109      0.0035820653   0.98808184    -0.0016089074 
    850000   1.0321649      0.0029051288   1.0182399     -0.0024565157 
    851000   0.96601236     0.0027204794   0.95527888     0            
    852000   0.92979807     0.0033939041   0.91946698     0            
    853000   0.95563483     0.0034885347   0.94338927    -0.0016273978 
    854000   0.98861972     0.0042099696   0.97763768     2.6150379e-06
    855000   0.85360154     0.0035827773   0.84380711    -0.00030996285
    856000   1.0411826      0.0041056526   1.0296139      0            
    857000   1.0114362      0.0046693575   1.000198       0            
    858000   1.0285407      0.0045638548   1.0171125      0            
    859000   1.0272643      0.0032992635   1.0155195     -0.00033080548
    860000   0.98022127     0.0037870737   0.96932993     0            
    861000   1.0058268      0.0037481173   0.99466426     1.3276007e-05
    862000   1.0173845      0.0038280299   1.0114322      0.005351928  
    863000   1.1268437      0.0051408619   1.1118899     -0.0024334017 
    864000   0.99374532     0.0037227219   0.98270371     0            
    865000   1.0190279      0.0040952278   1.0077053      0            
    866000   1.0227434      0.0031347839   1.0119981      0.00061845519
    867000   0.96134953     0.0039695992   0.95016005    -0.00050782258
    868000   0.98673399     0.0047101816   0.9797632      0.0039929229 
    869000   1.0070884      0.0041424419   0.99259368    -0.0033048463 
    870000   1.0139589      0.0035949989   1.0026927      0            
    871000   1.0448235      0.004552488    1.0332143      0            
    872000   0.93216883     0.0040589994   0.92177783    -3.3575318e-05
    873000   1.037454       0.0031126559   1.0261113      0.00018455106
    874000   1.0004676      0.0029108651   0.98935174     3.9905835e-07
    875000   0.94658315     0.005062346    0.93608093     1.5373565e-05
    876000   0.97950362     0.004542079    0.96674257    -0.0018776696 
    877000   1.0576208      0.0031885882   1.0435908     -0.0022786461 
    878000   1.0167053      0.0045793894   1.0029994     -0.0024092207 
    879000   0.99684547     0.0041808167   0.98606274     0.00029333059
    880000   0.96642161     0.0031213689   0.9556836      0            
    881000   0.9468049      0.0037763231   0.93628485     0            
    882000   0.98074898     0.0035129284   0.96937294    -0.0004788315 
    883000   1.002716       0.0049801418   0.99157476     0            
    884000   1.0333571      0.0038590474   1.0224154      0.00054005809
    885000   1.0501912      0.0041999649   1.0385224      0            
    886000   0.99059644     0.0039163046   0.97796402    -0.0016257957 
    887000   1.0649929      0.005570601    1.0643339      0.011174306  
    888000   0.95964034     0.0042531537   0.94897767     0            
    889000   1.0899732      0.0043568871   1.0757332     -0.0021291307 
    890000   0.92643125     0.0045354512   0.91613757     0            
    891000   0.9580836      0.0044170738   0.94743822     0            
    892000   1.039267       0.0027419246   1.0277196      0            
    893000   0.9716277      0.0044531409   0.96083184     0            
    894000   0.98850227     0.0041739262   0.97751892     0            
    895000   0.88486325     0.0029311441   0.87503143     0            
    896000   1.0717762      0.003989887    1.0598676      0            
    897000   0.98574908     0.0041289542   0.97479631     0            
    898000   1.0035692      0.0048824535   0.99241847     0            
    899000   0.84610249     0.0036352513   0.83675689     5.5537878e-05
    900000   1.031759       0.0040025558   1.0178384     -0.0024566064 
    901000   1.0000742      0.0038294144   0.98896231     0            
    902000   0.93336266     0.004105869    0.92299197     0            
    903000   1.0037901      0.0037859943   0.99263688     0            
    904000   1.0142775      0.0038060702   1.0030077      0            
    905000   0.92277033     0.0030387339   0.91251733     0            
    906000   1.0157762      0.0031643853   1.0044898      0            
    907000   1.0136628      0.0032960002   1.0023999      0            
    908000   1.0482955      0.0050558522   1.0366478      0            
    909000   0.98327093     0.0045336353   0.9723457      0            
    910000   1.0101549      0.0043645233   0.99893093     0            
    911000   1.0750451      0.0038347916   1.0631001      0            
    912000   1.138065       0.0047003768   1.1254198      0            
    913000   1.0468257      0.0031277334   1.0351943      0            
    914000   1.0761668      0.0047033766   1.0627301     -0.0014792463 
    915000   1.0000065      0.0047077191   0.98889532     0            
    916000   1.0137761      0.0035531635   1.003922       0.0014100747 
    917000   1.0170111      0.0044820227   1.005711       0            
    918000   0.89221707     0.0039084529   0.88230355     0            
    919000   0.96548137     0.0047970052   0.9547538      0            
    920000   0.99652623     0.0040535632   0.98545371     0            
    921000   1.0044588      0.0030834659   0.99329812     0            
    922000   0.9592399      0.0032397332   0.94858168     0            
    923000   0.96166385     0.0043785696   0.9509787      0            
    924000   0.96258346     0.0036037325   0.95191912     3.1034696e-05
    925000   0.95014515     0.0031051331   0.93958798     0            
    926000   0.95427056     0.0040332202   0.94366755     0            
    927000   0.98904037     0.0039001315   0.97805103     0            
    928000   0.99657255     0.0044141867   0.98549952     0            
    929000   1.0602841      0.003983374    1.0485044      1.2705859e-06
    930000   0.98115031     0.003686993    0.97024864     0            
    931000   0.98178248     0.004468168    0.97087379     0            
    932000   1.1105344      0.0044026697   1.0981952      0            
    933000   1.0651887      0.0044917802   1.0533533      0            
    934000   1.011156       0.0036133962   0.99992094     0            
    935000   0.98799499     0.004489428    0.97701727     0            
    936000   1.0613299      0.0042633399   1.0495373      0            
    937000   1.0496863      0.0053208886   1.0368305     -0.0011926058 
    938000   1.0354215      0.0052969027   1.0224238     -0.0014930484 
    939000   1.0230295      0.004311359    1.0112907     -0.00037175522
    940000   0.97277729     0.003710398    0.9623284      0.00035975081
    941000   0.99578042     0.0046872433   0.98210517    -0.0026110275 
    942000   1.0503394      0.0047355804   1.0366907     -0.0019782705 
    943000   0.88467231     0.0037951557   0.87340638    -0.0014362334 
    944000   1.0024089      0.0042831844   0.98746848    -0.0038025791 
    945000   1.0114536      0.0037501479   0.99815234    -0.0020628935 
    946000   1.113375       0.0038627119   1.0994084     -0.0015957084 
    947000   0.96466387     0.0038138816   0.95394539     0            
    948000   1.0501838      0.0050780497   1.0385151      0            
    949000   1.0424976      0.0041252617   1.0309143      0            
    950000   1.0637677      0.0036897503   1.051948       0            
    951000   0.95926766     0.0047529809   0.94860913     0            
    952000   1.0466281      0.0036507891   1.0349989      0            
    953000   1.0348129      0.0049595766   1.0233785      6.3509437e-05
    954000   1.0424096      0.004177163    1.0308273      0            
    955000   1.0294473      0.0052369697   1.018009       0            
    956000   0.95248447     0.004510674    0.94188398    -1.7329099e-05
    957000   0.96349027     0.0036296761   0.95689425     0.0041094288 
    958000   0.95573354     0.005085917    0.95407812     0.008963847  
    959000   1.0203113      0.0043296901   1.0089815      6.9685772e-06
    960000   1.0168516      0.0048798412   1.0055533      0            
    961000   1.0385136      0.0041243734   1.0245384     -0.002436084  
    962000   1.0054165      0.004195046    0.99424524     0            
    963000   1.0042369      0.0041795993   0.98962786    -0.003450831  
    964000   1.0389693      0.0040944349   1.0274252      0            
    965000   1.023332       0.0053077702   1.0177738      0.0058120806 
    966000   1.0535275      0.0042878699   1.0395193     -0.0023023952 
    967000   1.0024898      0.0040923576   0.98909719    -0.0022538042 
    968000   0.97777811     0.0042236013   0.96691391     0            
    969000   1.0173141      0.0038073243   1.0060106      0            
    970000   1.1411919      0.0046091445   1.128512       0            
    971000   1.0504051      0.0038461112   1.0391911      0.00045723543
    972000   0.96254439     0.0033192949   0.95184945     0            
    973000   1.0840432      0.0047554456   1.0719982      0            
    974000   1.0181915      0.0041414074   1.0068783      0            
    975000   0.98716945     0.0039331424   0.97692199     0.00072108636
    976000   1.0627174      0.0049265155   1.0509116      2.1694903e-06
    977000   0.97095817     0.0044404462   0.96016975     0            
    978000   0.98704687     0.0045739583   0.97607969     0            
    979000   0.95245891     0.0039844888   0.94187604     0            
    980000   0.97494287     0.0032193521   0.96411018     0            
    981000   0.87772599     0.0036663825   0.86799545     2.1973589e-05
    982000   1.0654298      0.0039977183   1.0535917      0            
    983000   1.0014873      0.0048979824   0.99035966     0            
    984000   1.0008555      0.003829373    0.98839564    -0.0013392682 
    985000   1.0415506      0.0046595928   1.0281583     -0.0018194791 
    986000   1.0602114      0.0037741385   1.0484312      0            
    987000   1.0103739      0.0036695651   0.99671905    -0.0024284757 
    988000   0.98262483     0.0034490366   0.97305353     0.0013467491 
    989000   0.99556374     0.0048265962   0.98445045    -5.147324e-05 
    990000   1.0299518      0.0037786806   1.0185079      0            
    991000   0.88521288     0.0038479354   0.87537718     0            
    992000   0.97357715     0.0042126463   0.96165097    -0.0011086645 
    993000   1.0145988      0.0045423911   1.0020134     -0.0013121076 
    994000   1.009844       0.004113684    0.99862349     0            
    995000   1.0394614      0.0038166277   1.0289725      0.0010607049 
    996000   1.0274097      0.0047936236   1.015994       0            
    997000   1.0205269      0.0037678366   1.0091877      0            
    998000   1.036302       0.005066376    1.0247875      0            
    999000   1.0282106      0.0034338783   1.0167861      0            
   1000000   1.0191142      0.0041111749   1.0077907      0            
Loop time of 16.9763 on 1 procs for 1000000 steps with 405 atoms

Performance: 50894372.010 tau/day, 58905.523 timesteps/s
98.8% CPU use with 1 MPI tasks x no OpenMP threads

MPI task timing breakdown:
Section |  min time  |  avg time  |  max time  |%varavg| %total
---------------------------------------------------------------
Pair    | 0.78716    | 0.78716    | 0.78716    |   0.0 |  4.64
Bond    | 0.042308   | 0.042308   | 0.042308   |   0.0 |  0.25
Neigh   | 3.2319     | 3.2319     | 3.2319     |   0.0 | 19.04
Comm    | 0.8579     | 0.8579     | 0.8579     |   0.0 |  5.05
Output  | 0.33039    | 0.33039    | 0.33039    |   0.0 |  1.95
Modify  | 10.393     | 10.393     | 10.393     |   0.0 | 61.22
Other   |            | 1.334      |            |       |  7.86

Nlocal:            405 ave         405 max         405 min
Histogram: 1 0 0 0 0 0 0 0 0 0
Nghost:             56 ave          56 max          56 min
Histogram: 1 0 0 0 0 0 0 0 0 0
Neighs:              2 ave           2 max           2 min
Histogram: 1 0 0 0 0 0 0 0 0 0

Total # of neighbors = 2
Ave neighs/atom = 0.0049382716
Ave special neighs/atom = 0
Neighbor list builds = 212484
Dangerous builds = 0
Total wall time: 0:00:17
